          97
Time step:               38000 Sim. Time [au]      380000.00
C     0.87126905E+02    0.86801654E+02    0.10187435E+03
H     0.87510111E+02    0.85863140E+02    0.10225172E+03
H     0.86095617E+02    0.86905002E+02    0.10242624E+03
H     0.87137362E+02    0.86772560E+02    0.10074917E+03
H     0.87593703E+02    0.87748769E+02    0.10221365E+03
C     0.86213479E+02    0.84914642E+02    0.10046604E+03
O     0.86331394E+02    0.84002882E+02    0.99720580E+02
O     0.97227505E+02    0.91258790E+02    0.10286286E+03
H     0.97915209E+02    0.91250168E+02    0.10206015E+03
H     0.97732202E+02    0.91318997E+02    0.10371940E+03
O     0.98483159E+02    0.93984582E+02    0.10684417E+03
H     0.98458227E+02    0.94522525E+02    0.10768503E+03
H     0.99197166E+02    0.94318362E+02    0.10614914E+03
O     0.10050711E+03    0.92680302E+02    0.10239512E+03
H     0.10074590E+03    0.91935859E+02    0.10171359E+03
H     0.10061306E+03    0.92397429E+02    0.10338084E+03
O     0.98582112E+02    0.98652796E+02    0.10183840E+03
H     0.98635305E+02    0.98370596E+02    0.10084504E+03
H     0.97721781E+02    0.98378445E+02    0.10239919E+03
O     0.95955336E+02    0.97859032E+02    0.10263764E+03
H     0.95071808E+02    0.98319546E+02    0.10229610E+03
H     0.95809399E+02    0.97096280E+02    0.10331038E+03
O     0.97438770E+02    0.94360709E+02    0.98339966E+02
H     0.96698043E+02    0.95012724E+02    0.98693141E+02
H     0.98212240E+02    0.94938364E+02    0.98060214E+02
O     0.95928402E+02    0.94627591E+02    0.10160547E+03
H     0.95577298E+02    0.93677906E+02    0.10152821E+03
H     0.96052856E+02    0.94977293E+02    0.10255526E+03
O     0.97023365E+02    0.91659310E+02    0.99167198E+02
H     0.97247001E+02    0.92546926E+02    0.98774151E+02
H     0.96279876E+02    0.91779453E+02    0.99871977E+02
O     0.98459151E+02    0.10016034E+03    0.97818584E+02
H     0.99257083E+02    0.10060639E+03    0.98216375E+02
H     0.98322488E+02    0.99285908E+02    0.98280810E+02
O     0.10123417E+03    0.90222967E+02    0.10110509E+03
H     0.10191136E+03    0.89430737E+02    0.10099288E+03
H     0.10030810E+03    0.90036240E+02    0.10076007E+03
O     0.99851953E+02    0.95260999E+02    0.10495954E+03
H     0.99701786E+02    0.95302794E+02    0.10393603E+03
H     0.10070973E+03    0.95785422E+02    0.10511995E+03
O     0.95921886E+02    0.10087677E+03    0.10130122E+03
H     0.96632272E+02    0.10015390E+03    0.10133068E+03
H     0.95570935E+02    0.10096346E+03    0.10035760E+03
O     0.92869904E+02    0.10345414E+03    0.10016185E+03
H     0.93654165E+02    0.10368134E+03    0.10075748E+03
H     0.92227134E+02    0.10421296E+03    0.10003362E+03
O     0.94580642E+02    0.10117101E+03    0.98993867E+02
H     0.93838262E+02    0.10184654E+03    0.99218516E+02
H     0.95099547E+02    0.10159095E+03    0.98225222E+02
O     0.95890894E+02    0.96371777E+02    0.99465670E+02
H     0.95165010E+02    0.97064126E+02    0.99457808E+02
H     0.95859483E+02    0.95826278E+02    0.10034059E+03
O     0.95123613E+02    0.92291295E+02    0.10454358E+03
H     0.94430337E+02    0.91713251E+02    0.10504544E+03
H     0.95967053E+02    0.91774440E+02    0.10433016E+03
O     0.93932401E+02    0.98480208E+02    0.99615353E+02
H     0.93577847E+02    0.98729357E+02    0.10053855E+03
H     0.94293741E+02    0.99324470E+02    0.99132404E+02
O     0.95137943E+02    0.91998912E+02    0.10117533E+03
H     0.95637074E+02    0.91567085E+02    0.10195610E+03
H     0.94099351E+02    0.92015556E+02    0.10130397E+03
O     0.99313656E+02    0.95182234E+02    0.10176046E+03
H     0.98331115E+02    0.95037586E+02    0.10156948E+03
H     0.99780551E+02    0.94292187E+02    0.10193290E+03
O     0.95972065E+02    0.95090846E+02    0.10451981E+03
H     0.95607814E+02    0.94147426E+02    0.10470867E+03
H     0.96636327E+02    0.95425641E+02    0.10519637E+03
O     0.93544768E+02    0.99549111E+02    0.10218875E+03
H     0.94281781E+02    0.10022960E+03    0.10219177E+03
H     0.92906308E+02    0.99571789E+02    0.10304572E+03
O     0.98516769E+02    0.91681157E+02    0.10534775E+03
H     0.99504510E+02    0.91487471E+02    0.10519963E+03
H     0.98385493E+02    0.92537644E+02    0.10589165E+03
O     0.94895108E+02    0.10358787E+03    0.10196575E+03
H     0.94614263E+02    0.10354601E+03    0.10294400E+03
H     0.95305628E+02    0.10271019E+03    0.10163172E+03
O     0.10139406E+03    0.92371596E+02    0.10506652E+03
H     0.10128330E+03    0.93375594E+02    0.10516109E+03
H     0.10237250E+03    0.92130397E+02    0.10509133E+03
O     0.10097853E+03    0.97242027E+02    0.10228005E+03
H     0.10037431E+03    0.98007652E+02    0.10256187E+03
H     0.10033956E+03    0.96585466E+02    0.10179475E+03
O     0.98103564E+02    0.97841301E+02    0.99369906E+02
H     0.98927896E+02    0.97353360E+02    0.99070226E+02
H     0.97270006E+02    0.97290868E+02    0.99194879E+02
O     0.10004757E+03    0.95927785E+02    0.98758317E+02
H     0.99830003E+02    0.95469902E+02    0.99665992E+02
H     0.10103856E+03    0.96049698E+02    0.98624574E+02
O     0.96464283E+02    0.10190702E+03    0.96958169E+02
H     0.96782052E+02    0.10213060E+03    0.96013558E+02
H     0.97060984E+02    0.10119057E+03    0.97390820E+02
O     0.98512039E+02    0.89994560E+02    0.10073122E+03
H     0.98153214E+02    0.89141067E+02    0.10122982E+03
H     0.98037704E+02    0.90332311E+02    0.99899134E+02
O     0.10206178E+03    0.96802788E+02    0.10480789E+03
H     0.10174161E+03    0.96953305E+02    0.10386232E+03
H     0.10266286E+03    0.97621132E+02    0.10510417E+03
