          97
Time step:               34500 Sim. Time [au]      345000.00
C     0.89377437E+02    0.85302350E+02    0.10232906E+03
H     0.89859199E+02    0.84349277E+02    0.10199661E+03
H     0.89421429E+02    0.86119182E+02    0.10157109E+03
H     0.89818486E+02    0.85647708E+02    0.10323965E+03
H     0.88266773E+02    0.85054358E+02    0.10239714E+03
C     0.87376707E+02    0.87695744E+02    0.10188049E+03
O     0.87181520E+02    0.88326877E+02    0.10092612E+03
O     0.97509621E+02    0.90863720E+02    0.10364108E+03
H     0.98040696E+02    0.90287824E+02    0.10304557E+03
H     0.98124399E+02    0.91186838E+02    0.10442389E+03
O     0.97939380E+02    0.95867927E+02    0.10569078E+03
H     0.97993000E+02    0.95686240E+02    0.10670238E+03
H     0.98828730E+02    0.96231279E+02    0.10531953E+03
O     0.10108385E+03    0.92929576E+02    0.10375460E+03
H     0.10132946E+03    0.91924487E+02    0.10365650E+03
H     0.10179755E+03    0.93519924E+02    0.10418445E+03
O     0.97121177E+02    0.98365925E+02    0.10078206E+03
H     0.97365382E+02    0.97925726E+02    0.99865833E+02
H     0.96387272E+02    0.97905437E+02    0.10129527E+03
O     0.94873822E+02    0.97446911E+02    0.10217887E+03
H     0.94440946E+02    0.98352139E+02    0.10239002E+03
H     0.94968167E+02    0.96840185E+02    0.10297974E+03
O     0.97188681E+02    0.92770147E+02    0.97232989E+02
H     0.96749250E+02    0.93517094E+02    0.97775922E+02
H     0.96878010E+02    0.92704002E+02    0.96274931E+02
O     0.96795996E+02    0.94576643E+02    0.10163051E+03
H     0.96748525E+02    0.93532789E+02    0.10181564E+03
H     0.96301597E+02    0.95150774E+02    0.10226800E+03
O     0.97992456E+02    0.91283701E+02    0.99700608E+02
H     0.97921528E+02    0.91697366E+02    0.98771383E+02
H     0.97262927E+02    0.91620037E+02    0.10031005E+03
O     0.98100128E+02    0.99312918E+02    0.97351493E+02
H     0.99057369E+02    0.99656306E+02    0.97432010E+02
H     0.98019558E+02    0.98332359E+02    0.97611682E+02
O     0.10136594E+03    0.90174178E+02    0.10316519E+03
H     0.10214410E+03    0.89529982E+02    0.10307877E+03
H     0.10059862E+03    0.89917243E+02    0.10257883E+03
O     0.10035279E+03    0.96611364E+02    0.10450198E+03
H     0.10004022E+03    0.96051841E+02    0.10369221E+03
H     0.10073758E+03    0.97532952E+02    0.10430838E+03
O     0.95548191E+02    0.10077315E+03    0.10117123E+03
H     0.96301598E+02    0.10008482E+03    0.10121633E+03
H     0.94837016E+02    0.10050931E+03    0.10048366E+03
O     0.91588285E+02    0.10091794E+03    0.10021064E+03
H     0.92151643E+02    0.10151821E+03    0.10082631E+03
H     0.90622237E+02    0.10118965E+03    0.10017580E+03
O     0.93857266E+02    0.99657526E+02    0.99176311E+02
H     0.92950146E+02    0.10009847E+03    0.99314134E+02
H     0.94471980E+02    0.10002886E+03    0.98412479E+02
O     0.96117590E+02    0.94877671E+02    0.98892459E+02
H     0.95294230E+02    0.95465409E+02    0.98776560E+02
H     0.96288565E+02    0.94687030E+02    0.99864020E+02
O     0.95511663E+02    0.92936802E+02    0.10425982E+03
H     0.94946896E+02    0.92957138E+02    0.10514717E+03
H     0.96203566E+02    0.92194955E+02    0.10423204E+03
O     0.94267064E+02    0.96757070E+02    0.99417166E+02
H     0.94157043E+02    0.96506925E+02    0.10038533E+03
H     0.93920289E+02    0.97696639E+02    0.99197713E+02
O     0.96058236E+02    0.91811863E+02    0.10150284E+03
H     0.96385828E+02    0.91596559E+02    0.10243063E+03
H     0.95154124E+02    0.91340964E+02    0.10129155E+03
O     0.99574538E+02    0.94786842E+02    0.10223404E+03
H     0.98614990E+02    0.94587423E+02    0.10197566E+03
H     0.10011411E+03    0.93938023E+02    0.10251170E+03
O     0.95806820E+02    0.95625108E+02    0.10404945E+03
H     0.95562327E+02    0.94650089E+02    0.10407168E+03
H     0.96546302E+02    0.95838626E+02    0.10468794E+03
O     0.93962867E+02    0.99752702E+02    0.10301874E+03
H     0.94662252E+02    0.10027277E+03    0.10251652E+03
H     0.92971733E+02    0.99958276E+02    0.10282649E+03
O     0.98577225E+02    0.93221902E+02    0.10507154E+03
H     0.99347270E+02    0.93113035E+02    0.10443643E+03
H     0.98144652E+02    0.94157526E+02    0.10509403E+03
O     0.93263462E+02    0.10246949E+03    0.10144385E+03
H     0.93114182E+02    0.10337233E+03    0.10189871E+03
H     0.94131695E+02    0.10208264E+03    0.10170341E+03
O     0.10264592E+03    0.94917970E+02    0.10479368E+03
H     0.10185136E+03    0.95535581E+02    0.10457822E+03
H     0.10346019E+03    0.95473118E+02    0.10466833E+03
O     0.99580383E+02    0.97681401E+02    0.10209004E+03
H     0.98725282E+02    0.98107515E+02    0.10176095E+03
H     0.99458897E+02    0.96706976E+02    0.10194680E+03
O     0.98077482E+02    0.96750393E+02    0.98551358E+02
H     0.98974139E+02    0.96455002E+02    0.98862854E+02
H     0.97364269E+02    0.96024456E+02    0.98599011E+02
O     0.10004715E+03    0.95322477E+02    0.99477413E+02
H     0.10004163E+03    0.94947286E+02    0.10047918E+03
H     0.10092747E+03    0.95258729E+02    0.98986283E+02
O     0.95459317E+02    0.10031069E+03    0.97050956E+02
H     0.95034537E+02    0.10021288E+03    0.96127528E+02
H     0.96419359E+02    0.99971248E+02    0.97120594E+02
O     0.99221711E+02    0.89568190E+02    0.10133060E+03
H     0.98980198E+02    0.88708223E+02    0.10086959E+03
H     0.98958813E+02    0.90275730E+02    0.10064337E+03
O     0.10131455E+03    0.98994921E+02    0.10362884E+03
H     0.10065104E+03    0.98708917E+02    0.10294407E+03
H     0.10220613E+03    0.99224716E+02    0.10314768E+03
