          97
Time step:               41000 Sim. Time [au]      410000.00
C     0.84349639E+02    0.84754567E+02    0.99348961E+02
H     0.84569531E+02    0.83824850E+02    0.98779880E+02
H     0.83930198E+02    0.84628349E+02    0.10038718E+03
H     0.83453222E+02    0.85231028E+02    0.98790420E+02
H     0.85094878E+02    0.85499811E+02    0.99411956E+02
C     0.85977761E+02    0.83528524E+02    0.99578331E+02
O     0.86102834E+02    0.83080397E+02    0.10066832E+03
O     0.96792216E+02    0.90892659E+02    0.10227351E+03
H     0.96802712E+02    0.90586329E+02    0.10131109E+03
H     0.97686282E+02    0.90744427E+02    0.10267747E+03
O     0.99126581E+02    0.91981280E+02    0.10613236E+03
H     0.99770592E+02    0.91661186E+02    0.10682896E+03
H     0.99569241E+02    0.92835713E+02    0.10579443E+03
O     0.99504550E+02    0.92772878E+02    0.10125491E+03
H     0.99304819E+02    0.92214542E+02    0.10042749E+03
H     0.99217310E+02    0.92282184E+02    0.10210486E+03
O     0.97586416E+02    0.99100825E+02    0.10149312E+03
H     0.98360451E+02    0.99300969E+02    0.10087503E+03
H     0.96825907E+02    0.98699361E+02    0.10092998E+03
O     0.94835979E+02    0.97269172E+02    0.10324735E+03
H     0.94783416E+02    0.98240308E+02    0.10351403E+03
H     0.94377963E+02    0.96632550E+02    0.10392843E+03
O     0.98122540E+02    0.94587122E+02    0.98518152E+02
H     0.97699934E+02    0.95524897E+02    0.98418535E+02
H     0.99130080E+02    0.94654984E+02    0.98569801E+02
O     0.96323740E+02    0.95738917E+02    0.10167639E+03
H     0.96037895E+02    0.94760654E+02    0.10164846E+03
H     0.95710144E+02    0.96300994E+02    0.10223393E+03
O     0.96058952E+02    0.92816835E+02    0.98803574E+02
H     0.96919783E+02    0.93396457E+02    0.98699121E+02
H     0.95748760E+02    0.93036628E+02    0.99755279E+02
O     0.99428465E+02    0.10065616E+03    0.98895959E+02
H     0.10031038E+03    0.10096420E+03    0.99289226E+02
H     0.99443377E+02    0.99615978E+02    0.98761761E+02
O     0.99058705E+02    0.90834488E+02    0.99169382E+02
H     0.99247302E+02    0.90850833E+02    0.98188261E+02
H     0.98175618E+02    0.90382074E+02    0.99347632E+02
O     0.10000042E+03    0.94470499E+02    0.10443268E+03
H     0.99657697E+02    0.95011345E+02    0.10364714E+03
H     0.99671122E+02    0.94901163E+02    0.10528966E+03
O     0.96327705E+02    0.10137369E+03    0.10219591E+03
H     0.96989351E+02    0.10062163E+03    0.10194475E+03
H     0.95747251E+02    0.10153624E+03    0.10133920E+03
O     0.94877599E+02    0.10433005E+03    0.99831393E+02
H     0.95689434E+02    0.10454366E+03    0.10035551E+03
H     0.94218158E+02    0.10507364E+03    0.99789254E+02
O     0.95028376E+02    0.10135819E+03    0.99783798E+02
H     0.94598005E+02    0.10229116E+03    0.99708763E+02
H     0.95837742E+02    0.10143854E+03    0.99184213E+02
O     0.97012037E+02    0.96977144E+02    0.99147702E+02
H     0.96175263E+02    0.97476719E+02    0.98936514E+02
H     0.96828539E+02    0.96339932E+02    0.99951100E+02
O     0.96672904E+02    0.92552273E+02    0.10475166E+03
H     0.97261300E+02    0.92265852E+02    0.10553904E+03
H     0.96687557E+02    0.91818702E+02    0.10402627E+03
O     0.95281141E+02    0.98809782E+02    0.10015103E+03
H     0.94658083E+02    0.98402101E+02    0.10084282E+03
H     0.95055397E+02    0.99753671E+02    0.99874753E+02
O     0.95602795E+02    0.93241449E+02    0.10164172E+03
H     0.96177842E+02    0.92543707E+02    0.10212151E+03
H     0.94650003E+02    0.92973084E+02    0.10183002E+03
O     0.99060877E+02    0.95456496E+02    0.10190629E+03
H     0.98024065E+02    0.95470516E+02    0.10191294E+03
H     0.99378688E+02    0.94484883E+02    0.10181654E+03
O     0.95110299E+02    0.95171120E+02    0.10523041E+03
H     0.95825723E+02    0.95858475E+02    0.10507670E+03
H     0.95402966E+02    0.94266436E+02    0.10497301E+03
O     0.95075259E+02    0.10009326E+03    0.10414463E+03
H     0.95717846E+02    0.10046483E+03    0.10342203E+03
H     0.94817296E+02    0.10088049E+03    0.10479910E+03
O     0.99244717E+02    0.90962051E+02    0.10357066E+03
H     0.99924116E+02    0.90182404E+02    0.10362636E+03
H     0.99034545E+02    0.91279579E+02    0.10452762E+03
O     0.97449667E+02    0.10405321E+03    0.10143228E+03
H     0.98110495E+02    0.10394657E+03    0.10068372E+03
H     0.97283190E+02    0.10318598E+03    0.10192834E+03
O     0.10195436E+03    0.92077132E+02    0.10473646E+03
H     0.10136177E+03    0.92903933E+02    0.10460326E+03
H     0.10292041E+03    0.92391550E+02    0.10467157E+03
O     0.98712604E+02    0.97629322E+02    0.10366585E+03
H     0.98130601E+02    0.98252242E+02    0.10313731E+03
H     0.99213605E+02    0.96984078E+02    0.10302394E+03
O     0.99599656E+02    0.97900602E+02    0.98754233E+02
H     0.10015627E+03    0.97090537E+02    0.98945547E+02
H     0.98589498E+02    0.97704410E+02    0.98848227E+02
O     0.10057094E+03    0.95275871E+02    0.99641636E+02
H     0.10006139E+03    0.95508396E+02    0.10052385E+03
H     0.10096617E+03    0.94381322E+02    0.99761448E+02
O     0.97190553E+02    0.10202336E+03    0.98352804E+02
H     0.97276382E+02    0.10259076E+03    0.97554730E+02
H     0.98027831E+02    0.10150737E+03    0.98552405E+02
O     0.96341272E+02    0.90256492E+02    0.99482513E+02
H     0.95813467E+02    0.89635228E+02    0.98848030E+02
H     0.96221989E+02    0.91199547E+02    0.99138063E+02
O     0.98629648E+02    0.96215267E+02    0.10606224E+03
H     0.98693425E+02    0.96720656E+02    0.10521886E+03
H     0.98064474E+02    0.96678253E+02    0.10679813E+03
