          97
Time step:               27500 Sim. Time [au]      275000.00
C     0.93301397E+02    0.89070072E+02    0.10422895E+03
H     0.94259408E+02    0.89537585E+02    0.10413151E+03
H     0.93202230E+02    0.88829878E+02    0.10529657E+03
H     0.93144861E+02    0.88245971E+02    0.10353394E+03
H     0.92374980E+02    0.89679645E+02    0.10386401E+03
C     0.91839025E+02    0.93057906E+02    0.10344650E+03
O     0.90934257E+02    0.92396648E+02    0.10313342E+03
O     0.98364127E+02    0.89432143E+02    0.10317665E+03
H     0.97959990E+02    0.88598830E+02    0.10286712E+03
H     0.99227080E+02    0.89842439E+02    0.10280628E+03
O     0.99762949E+02    0.96748890E+02    0.10635555E+03
H     0.99664685E+02    0.97523223E+02    0.10698927E+03
H     0.10029587E+03    0.97021363E+02    0.10552272E+03
O     0.10143681E+03    0.94371829E+02    0.10359263E+03
H     0.10128919E+03    0.93599507E+02    0.10422075E+03
H     0.10150932E+03    0.95227647E+02    0.10414522E+03
O     0.96456739E+02    0.98043490E+02    0.98388356E+02
H     0.96890963E+02    0.97199555E+02    0.98111022E+02
H     0.96633788E+02    0.98114063E+02    0.99420987E+02
O     0.95411492E+02    0.96829639E+02    0.10316671E+03
H     0.94673366E+02    0.97080146E+02    0.10381208E+03
H     0.96261546E+02    0.96516036E+02    0.10367386E+03
O     0.96043061E+02    0.91617106E+02    0.10073095E+03
H     0.95904265E+02    0.92592882E+02    0.10044636E+03
H     0.95474999E+02    0.90900977E+02    0.10024320E+03
O     0.97939136E+02    0.94250323E+02    0.10262030E+03
H     0.97533362E+02    0.93374020E+02    0.10289211E+03
H     0.97855959E+02    0.94888943E+02    0.10340888E+03
O     0.99663581E+02    0.91472500E+02    0.10053871E+03
H     0.98669776E+02    0.91503253E+02    0.10061624E+03
H     0.10002942E+03    0.92434255E+02    0.10040445E+03
O     0.95894941E+02    0.95421921E+02    0.96429786E+02
H     0.96219704E+02    0.96039567E+02    0.95713892E+02
H     0.96644768E+02    0.95172341E+02    0.97079755E+02
O     0.10116994E+03    0.92126763E+02    0.10510607E+03
H     0.10176379E+03    0.91719774E+02    0.10586877E+03
H     0.10106050E+03    0.91491201E+02    0.10434363E+03
O     0.99196042E+02    0.97557580E+02    0.10184384E+03
H     0.99563353E+02    0.96996006E+02    0.10108333E+03
H     0.98317507E+02    0.97997130E+02    0.10154865E+03
O     0.94138212E+02    0.99405618E+02    0.97839617E+02
H     0.95087729E+02    0.99034409E+02    0.97627570E+02
H     0.93638479E+02    0.98745849E+02    0.98421131E+02
O     0.90474070E+02    0.98836226E+02    0.97570500E+02
H     0.91190320E+02    0.99547815E+02    0.97443484E+02
H     0.89852875E+02    0.98784682E+02    0.96728789E+02
O     0.92905565E+02    0.97170694E+02    0.98568583E+02
H     0.91992075E+02    0.97536815E+02    0.98301739E+02
H     0.93142270E+02    0.96304193E+02    0.98035868E+02
O     0.96254305E+02    0.94335256E+02    0.10016950E+03
H     0.95522631E+02    0.94995016E+02    0.10028081E+03
H     0.96881166E+02    0.94457438E+02    0.10098040E+03
O     0.96503431E+02    0.93804773E+02    0.10584962E+03
H     0.96211045E+02    0.93019742E+02    0.10530699E+03
H     0.97492443E+02    0.93594296E+02    0.10620455E+03
O     0.94220581E+02    0.95898608E+02    0.10061113E+03
H     0.94411513E+02    0.96382822E+02    0.10148026E+03
H     0.93748921E+02    0.96596260E+02    0.99996723E+02
O     0.96783058E+02    0.91811414E+02    0.10325343E+03
H     0.97238009E+02    0.90930920E+02    0.10348825E+03
H     0.96306816E+02    0.91722905E+02    0.10236461E+03
O     0.10021518E+03    0.94097192E+02    0.10128823E+03
H     0.99328520E+02    0.94015381E+02    0.10179525E+03
H     0.10094968E+03    0.94204810E+02    0.10203033E+03
O     0.97568572E+02    0.96063251E+02    0.10463693E+03
H     0.97021112E+02    0.95301946E+02    0.10509666E+03
H     0.98343333E+02    0.96380321E+02    0.10520067E+03
O     0.93608019E+02    0.97125944E+02    0.10505976E+03
H     0.92950887E+02    0.97812081E+02    0.10543142E+03
H     0.93278665E+02    0.96170126E+02    0.10520262E+03
O     0.99262569E+02    0.93719694E+02    0.10607220E+03
H     0.10003867E+03    0.93138804E+02    0.10583328E+03
H     0.99557168E+02    0.94638297E+02    0.10646308E+03
O     0.92268630E+02    0.10097641E+03    0.97104212E+02
H     0.92526199E+02    0.10196045E+03    0.97090013E+02
H     0.93043389E+02    0.10038216E+03    0.97347353E+02
O     0.10091166E+03    0.97439792E+02    0.10389591E+03
H     0.10015672E+03    0.97340408E+02    0.10320725E+03
H     0.10152815E+03    0.98227727E+02    0.10377767E+03
O     0.95245138E+02    0.10068574E+03    0.10042176E+03
H     0.95225469E+02    0.10168380E+03    0.10020092E+03
H     0.94745878E+02    0.10026763E+03    0.99613646E+02
O     0.97921002E+02    0.95579121E+02    0.98301786E+02
H     0.98866916E+02    0.95794350E+02    0.98558284E+02
H     0.97584658E+02    0.94782978E+02    0.98837183E+02
O     0.10043752E+03    0.96106879E+02    0.99490823E+02
H     0.10040120E+03    0.95437174E+02    0.10028164E+03
H     0.10137536E+03    0.96476600E+02    0.99395268E+02
O     0.93408304E+02    0.94872077E+02    0.97332833E+02
H     0.93445072E+02    0.94072147E+02    0.97945252E+02
H     0.94335722E+02    0.95008578E+02    0.96933775E+02
O     0.10124680E+03    0.90587248E+02    0.10277929E+03
H     0.10186313E+03    0.89904709E+02    0.10247537E+03
H     0.10060807E+03    0.90817412E+02    0.10201555E+03
O     0.96757478E+02    0.98430368E+02    0.10115001E+03
H     0.96254464E+02    0.99321396E+02    0.10112338E+03
H     0.96306678E+02    0.97759321E+02    0.10177102E+03
