          97
Time step:               14500 Sim. Time [au]      145000.00
C     0.99278956E+02    0.94507762E+02    0.11018897E+03
H     0.98208097E+02    0.94237553E+02    0.11007880E+03
H     0.99429979E+02    0.95572441E+02    0.11032622E+03
H     0.99687542E+02    0.94166275E+02    0.10929815E+03
H     0.99714573E+02    0.93703937E+02    0.11095661E+03
C     0.93937900E+02    0.94367550E+02    0.10651137E+03
O     0.93995033E+02    0.93513088E+02    0.10573192E+03
O     0.96833675E+02    0.99301462E+02    0.10813007E+03
H     0.97370303E+02    0.10006899E+03    0.10852893E+03
H     0.96147857E+02    0.98878243E+02    0.10878025E+03
O     0.98008492E+02    0.99283260E+02    0.10136599E+03
H     0.97484885E+02    0.99776627E+02    0.10064966E+03
H     0.98876126E+02    0.98903783E+02    0.10101287E+03
O     0.10181080E+03    0.96719018E+02    0.10148100E+03
H     0.10278303E+03    0.97022039E+02    0.10127886E+03
H     0.10129965E+03    0.97491710E+02    0.10108387E+03
O     0.95781169E+02    0.93835578E+02    0.97973241E+02
H     0.96674038E+02    0.93369404E+02    0.98180681E+02
H     0.95913499E+02    0.94806135E+02    0.98112838E+02
O     0.95201432E+02    0.97213263E+02    0.10090044E+03
H     0.94486418E+02    0.96611600E+02    0.10131785E+03
H     0.95748079E+02    0.97696602E+02    0.10166331E+03
O     0.96449475E+02    0.91651065E+02    0.10404353E+03
H     0.96371374E+02    0.92006499E+02    0.10307959E+03
H     0.95487815E+02    0.91539309E+02    0.10443635E+03
O     0.96827588E+02    0.95015267E+02    0.10280128E+03
H     0.97276998E+02    0.94663145E+02    0.10360824E+03
H     0.96625159E+02    0.96018885E+02    0.10295615E+03
O     0.99090321E+02    0.96194860E+02    0.10505961E+03
H     0.98371088E+02    0.95484211E+02    0.10517090E+03
H     0.98706089E+02    0.97127439E+02    0.10518008E+03
O     0.96514005E+02    0.89800491E+02    0.97572484E+02
H     0.97079711E+02    0.89696875E+02    0.96737355E+02
H     0.96746703E+02    0.90720939E+02    0.97912239E+02
O     0.10156044E+03    0.99752800E+02    0.10396599E+03
H     0.10249825E+03    0.99964194E+02    0.10374247E+03
H     0.10160561E+03    0.98731026E+02    0.10410560E+03
O     0.98869415E+02    0.96549553E+02    0.98799028E+02
H     0.99065772E+02    0.95608402E+02    0.98525147E+02
H     0.97821789E+02    0.96712488E+02    0.98809422E+02
O     0.93139412E+02    0.93305104E+02    0.97337794E+02
H     0.94037529E+02    0.93710656E+02    0.97232982E+02
H     0.93174235E+02    0.92306416E+02    0.97291307E+02
O     0.91716544E+02    0.91968532E+02    0.99967524E+02
H     0.91373819E+02    0.92792129E+02    0.99524342E+02
H     0.91275320E+02    0.91838188E+02    0.10091520E+03
O     0.92714530E+02    0.90611972E+02    0.97816476E+02
H     0.92531221E+02    0.91055076E+02    0.98719600E+02
H     0.93382011E+02    0.89807204E+02    0.97945535E+02
O     0.96614048E+02    0.92854252E+02    0.10122414E+03
H     0.95663155E+02    0.92949312E+02    0.10087007E+03
H     0.96964929E+02    0.93648839E+02    0.10181412E+03
O     0.97590106E+02    0.98457149E+02    0.10547507E+03
H     0.97343163E+02    0.98694590E+02    0.10645184E+03
H     0.98112468E+02    0.99192125E+02    0.10500147E+03
O     0.94212236E+02    0.93060923E+02    0.10015853E+03
H     0.94612527E+02    0.93478228E+02    0.99308641E+02
H     0.93349584E+02    0.92650569E+02    0.99932156E+02
O     0.97562313E+02    0.93991519E+02    0.10531268E+03
H     0.97786354E+02    0.94056302E+02    0.10628695E+03
H     0.97279965E+02    0.93034377E+02    0.10500447E+03
O     0.10092868E+03    0.94139899E+02    0.10157406E+03
H     0.10044963E+03    0.93554185E+02    0.10226416E+03
H     0.10115196E+03    0.95072178E+02    0.10191894E+03
O     0.96792882E+02    0.97690142E+02    0.10308807E+03
H     0.97119238E+02    0.97872934E+02    0.10402161E+03
H     0.97384575E+02    0.98319312E+02    0.10253087E+03
O     0.93346325E+02    0.95351274E+02    0.10177790E+03
H     0.93769126E+02    0.94510118E+02    0.10135602E+03
H     0.92462148E+02    0.95532731E+02    0.10140644E+03
O     0.98922338E+02    0.10045573E+03    0.10418886E+03
H     0.99938158E+02    0.10024022E+03    0.10423501E+03
H     0.98655226E+02    0.10052780E+03    0.10321627E+03
O     0.90869718E+02    0.95290398E+02    0.10000711E+03
H     0.89937637E+02    0.95645156E+02    0.10017421E+03
H     0.91277490E+02    0.95502141E+02    0.99118047E+02
O     0.10030722E+03    0.98302076E+02    0.10016747E+03
H     0.99777815E+02    0.97624789E+02    0.99663992E+02
H     0.10059869E+03    0.99053641E+02    0.99536333E+02
O     0.91349618E+02    0.95426680E+02    0.96966752E+02
H     0.90529734E+02    0.95143171E+02    0.96431389E+02
H     0.92084966E+02    0.94733047E+02    0.97116641E+02
O     0.97822468E+02    0.92304020E+02    0.98698291E+02
H     0.98810184E+02    0.92497348E+02    0.98786895E+02
H     0.97367636E+02    0.92410224E+02    0.99598666E+02
O     0.10029689E+03    0.93442375E+02    0.99026271E+02
H     0.10046354E+03    0.93763131E+02    0.10000172E+03
H     0.10119741E+03    0.93094668E+02    0.98630998E+02
O     0.94427438E+02    0.88551025E+02    0.98603432E+02
H     0.94768688E+02    0.87805013E+02    0.99182028E+02
H     0.95209736E+02    0.88946103E+02    0.98067431E+02
O     0.10151851E+03    0.96819155E+02    0.10407910E+03
H     0.10128489E+03    0.96789214E+02    0.10303436E+03
H     0.10080661E+03    0.96537126E+02    0.10467305E+03
O     0.96223439E+02    0.96849597E+02    0.98512069E+02
H     0.95857810E+02    0.97464476E+02    0.97827667E+02
H     0.95788511E+02    0.97055622E+02    0.99407936E+02
