          97
Time step:                7500 Sim. Time [au]       75000.00
C     0.10133306E+03    0.91983232E+02    0.10311138E+03
H     0.10028936E+03    0.92093968E+02    0.10331706E+03
H     0.10173263E+03    0.91446368E+02    0.10402424E+03
H     0.10188291E+03    0.92970420E+02    0.10304307E+03
H     0.10157422E+03    0.91485076E+02    0.10216295E+03
C     0.95609012E+02    0.96750484E+02    0.10496172E+03
O     0.94507227E+02    0.96684156E+02    0.10476048E+03
O     0.91740325E+02    0.10004728E+03    0.10240989E+03
H     0.91304539E+02    0.99594426E+02    0.10160948E+03
H     0.91183472E+02    0.10000409E+03    0.10324474E+03
O     0.97108824E+02    0.99083410E+02    0.98720378E+02
H     0.96505686E+02    0.98532682E+02    0.98082115E+02
H     0.98073596E+02    0.98758942E+02    0.98749217E+02
O     0.10039281E+03    0.98249257E+02    0.10159973E+03
H     0.99702956E+02    0.98718911E+02    0.10221077E+03
H     0.10018596E+03    0.98277232E+02    0.10060923E+03
O     0.96929882E+02    0.92021543E+02    0.99333854E+02
H     0.97870242E+02    0.91804870E+02    0.99703776E+02
H     0.96908962E+02    0.92740531E+02    0.98650377E+02
O     0.95061088E+02    0.95970996E+02    0.10011940E+03
H     0.94740957E+02    0.95255715E+02    0.10075831E+03
H     0.95469497E+02    0.96697145E+02    0.10065947E+03
O     0.97668517E+02    0.93469485E+02    0.10555566E+03
H     0.97927636E+02    0.93117198E+02    0.10463499E+03
H     0.97163570E+02    0.92803551E+02    0.10613459E+03
O     0.97822488E+02    0.95689648E+02    0.10261866E+03
H     0.98014063E+02    0.95901298E+02    0.10360827E+03
H     0.97331286E+02    0.96529667E+02    0.10227771E+03
O     0.98735145E+02    0.98608700E+02    0.10542694E+03
H     0.99022674E+02    0.97639457E+02    0.10550009E+03
H     0.98564038E+02    0.98862834E+02    0.10640277E+03
O     0.98772117E+02    0.89563435E+02    0.10208911E+03
H     0.99716469E+02    0.89570953E+02    0.10245998E+03
H     0.98836298E+02    0.90214502E+02    0.10131290E+03
O     0.98102816E+02    0.10205287E+03    0.10170457E+03
H     0.98783648E+02    0.10273743E+03    0.10179042E+03
H     0.98257871E+02    0.10120766E+03    0.10229411E+03
O     0.99749021E+02    0.95154960E+02    0.98636986E+02
H     0.10035410E+03    0.94509489E+02    0.99134558E+02
H     0.98798107E+02    0.94858160E+02    0.98728766E+02
O     0.94410559E+02    0.90807079E+02    0.10011060E+03
H     0.95335251E+02    0.91186090E+02    0.99853203E+02
H     0.94374517E+02    0.89769431E+02    0.99961680E+02
O     0.92668782E+02    0.92569408E+02    0.10385792E+03
H     0.92391002E+02    0.92699396E+02    0.10482956E+03
H     0.91882634E+02    0.92158532E+02    0.10334046E+03
O     0.94634404E+02    0.87954108E+02    0.99962709E+02
H     0.94636436E+02    0.87001798E+02    0.99565102E+02
H     0.95373006E+02    0.88030585E+02    0.10063785E+03
O     0.97767358E+02    0.93101324E+02    0.10268155E+03
H     0.96832743E+02    0.92758817E+02    0.10245139E+03
H     0.97746027E+02    0.94165250E+02    0.10262707E+03
O     0.94406372E+02    0.99465204E+02    0.10210676E+03
H     0.93436920E+02    0.99741531E+02    0.10221457E+03
H     0.94872877E+02    0.10010311E+03    0.10151407E+03
O     0.95179877E+02    0.91913914E+02    0.10279786E+03
H     0.94820546E+02    0.91710622E+02    0.10188679E+03
H     0.94406993E+02    0.92254363E+02    0.10334734E+03
O     0.98896872E+02    0.95718494E+02    0.10507690E+03
H     0.99893377E+02    0.95465490E+02    0.10523356E+03
H     0.98325112E+02    0.94962256E+02    0.10527724E+03
O     0.10073458E+03    0.95533261E+02    0.10199110E+03
H     0.99783561E+02    0.95273508E+02    0.10222009E+03
H     0.10078341E+03    0.96546432E+02    0.10177480E+03
O     0.96570861E+02    0.98032635E+02    0.10157148E+03
H     0.95702241E+02    0.98495990E+02    0.10181286E+03
H     0.96939954E+02    0.98333730E+02    0.10066368E+03
O     0.93542138E+02    0.94084943E+02    0.10143076E+03
H     0.93240695E+02    0.94410343E+02    0.10233488E+03
H     0.92930677E+02    0.93416840E+02    0.10096404E+03
O     0.95943682E+02    0.10099677E+03    0.10046870E+03
H     0.96722668E+02    0.10148345E+03    0.10100227E+03
H     0.96306535E+02    0.10046598E+03    0.99686116E+02
O     0.90805557E+02    0.91409821E+02    0.10233000E+03
H     0.90159004E+02    0.90636449E+02    0.10228277E+03
H     0.91127505E+02    0.91668085E+02    0.10138707E+03
O     0.99476240E+02    0.97951697E+02    0.98578060E+02
H     0.99613003E+02    0.96915099E+02    0.98717111E+02
H     0.10012526E+03    0.98317792E+02    0.97918884E+02
O     0.92092764E+02    0.92263786E+02    0.10007702E+03
H     0.91922832E+02    0.92568386E+02    0.99138577E+02
H     0.92889955E+02    0.91617213E+02    0.10012986E+03
O     0.99266651E+02    0.91885425E+02    0.10067868E+03
H     0.10005927E+03    0.92454884E+02    0.10027912E+03
H     0.98692137E+02    0.92430165E+02    0.10133242E+03
O     0.10138371E+03    0.93707381E+02    0.10017424E+03
H     0.10110490E+03    0.94423530E+02    0.10087876E+03
H     0.10235173E+03    0.93491466E+02    0.10009646E+03
O     0.96208205E+02    0.88711992E+02    0.10245771E+03
H     0.95730730E+02    0.89564579E+02    0.10276376E+03
H     0.97162748E+02    0.89007499E+02    0.10225168E+03
O     0.98369721E+02    0.99600006E+02    0.10297491E+03
H     0.97510459E+02    0.99246006E+02    0.10261329E+03
H     0.98343260E+02    0.99444457E+02    0.10397745E+03
O     0.96287820E+02    0.94560982E+02    0.98043652E+02
H     0.95771964E+02    0.94488391E+02    0.97182864E+02
H     0.95690617E+02    0.95033577E+02    0.98747564E+02
