          97
Time step:               38500 Sim. Time [au]      385000.00
C     0.87376010E+02    0.85531889E+02    0.10189925E+03
H     0.88155332E+02    0.86150825E+02    0.10149424E+03
H     0.86395602E+02    0.86111264E+02    0.10201983E+03
H     0.87784410E+02    0.85321056E+02    0.10295184E+03
H     0.87254676E+02    0.84548857E+02    0.10140897E+03
C     0.86487204E+02    0.84656468E+02    0.99798499E+02
O     0.85318634E+02    0.84797268E+02    0.99808154E+02
O     0.97380315E+02    0.91573250E+02    0.10281122E+03
H     0.97679521E+02    0.90936714E+02    0.10206382E+03
H     0.97883682E+02    0.91403980E+02    0.10368406E+03
O     0.98708006E+02    0.93460851E+02    0.10687719E+03
H     0.98250533E+02    0.93994367E+02    0.10756293E+03
H     0.98917358E+02    0.94121300E+02    0.10611702E+03
O     0.10079553E+03    0.92534368E+02    0.10191227E+03
H     0.10081560E+03    0.91635126E+02    0.10146616E+03
H     0.10083052E+03    0.92468876E+02    0.10293949E+03
O     0.98167559E+02    0.98614750E+02    0.10178395E+03
H     0.97929683E+02    0.98500657E+02    0.10081972E+03
H     0.97458659E+02    0.98140251E+02    0.10233929E+03
O     0.96094178E+02    0.97860697E+02    0.10331839E+03
H     0.95125067E+02    0.98024762E+02    0.10320733E+03
H     0.96264241E+02    0.96943579E+02    0.10371191E+03
O     0.97543186E+02    0.94637883E+02    0.98412261E+02
H     0.96857833E+02    0.95402076E+02    0.98609431E+02
H     0.98451444E+02    0.94901449E+02    0.98780368E+02
O     0.96081052E+02    0.94844325E+02    0.10164753E+03
H     0.95723071E+02    0.93994990E+02    0.10122520E+03
H     0.95906968E+02    0.94895679E+02    0.10266221E+03
O     0.97312673E+02    0.92003437E+02    0.99259520E+02
H     0.97496179E+02    0.92876367E+02    0.98715759E+02
H     0.96312374E+02    0.91870612E+02    0.99428072E+02
O     0.98397499E+02    0.10039614E+03    0.98014417E+02
H     0.99422980E+02    0.10037876E+03    0.97902861E+02
H     0.98114270E+02    0.99471439E+02    0.98348997E+02
O     0.10087284E+03    0.90049402E+02    0.10098559E+03
H     0.10117594E+03    0.89551794E+02    0.10014762E+03
H     0.99860852E+02    0.90006985E+02    0.10098926E+03
O     0.99625006E+02    0.94990171E+02    0.10479113E+03
H     0.99076359E+02    0.95445018E+02    0.10409674E+03
H     0.10052562E+03    0.95433441E+02    0.10499146E+03
O     0.95922995E+02    0.10092614E+03    0.10176254E+03
H     0.96607858E+02    0.10016019E+03    0.10173919E+03
H     0.95561819E+02    0.10102182E+03    0.10078137E+03
O     0.93091234E+02    0.10351146E+03    0.99818703E+02
H     0.93786344E+02    0.10361356E+03    0.10054030E+03
H     0.92440551E+02    0.10427332E+03    0.99880606E+02
O     0.94736847E+02    0.10138004E+03    0.99344740E+02
H     0.93966204E+02    0.10206238E+03    0.99466170E+02
H     0.95395893E+02    0.10159686E+03    0.98610735E+02
O     0.96006345E+02    0.96576686E+02    0.99391769E+02
H     0.95283828E+02    0.97276105E+02    0.99267187E+02
H     0.95883810E+02    0.96103104E+02    0.10033489E+03
O     0.95227505E+02    0.92245106E+02    0.10456265E+03
H     0.94951740E+02    0.91752193E+02    0.10540314E+03
H     0.96037226E+02    0.91838083E+02    0.10415801E+03
O     0.94408352E+02    0.98750882E+02    0.99838768E+02
H     0.93933832E+02    0.98859052E+02    0.10075114E+03
H     0.94493232E+02    0.99618912E+02    0.99319354E+02
O     0.95217195E+02    0.91966575E+02    0.10109018E+03
H     0.95909411E+02    0.92004270E+02    0.10179522E+03
H     0.94259598E+02    0.92000095E+02    0.10147335E+03
O     0.99363666E+02    0.94888752E+02    0.10168100E+03
H     0.98355895E+02    0.94702297E+02    0.10166234E+03
H     0.99881714E+02    0.93992765E+02    0.10177035E+03
O     0.95876491E+02    0.95104876E+02    0.10432067E+03
H     0.95738498E+02    0.94102121E+02    0.10423217E+03
H     0.95847371E+02    0.95510560E+02    0.10525877E+03
O     0.93684080E+02    0.99565146E+02    0.10246042E+03
H     0.94447917E+02    0.10017731E+03    0.10230572E+03
H     0.92946313E+02    0.10012524E+03    0.10293483E+03
O     0.98375562E+02    0.91396680E+02    0.10527484E+03
H     0.99326825E+02    0.91476195E+02    0.10488495E+03
H     0.98247799E+02    0.92007675E+02    0.10606770E+03
O     0.95538013E+02    0.10361201E+03    0.10134687E+03
H     0.96091601E+02    0.10382313E+03    0.10054786E+03
H     0.95697524E+02    0.10267189E+03    0.10169310E+03
O     0.10088763E+03    0.92429028E+02    0.10467321E+03
H     0.10055531E+03    0.93384686E+02    0.10462908E+03
H     0.10143061E+03    0.92257165E+02    0.10553168E+03
O     0.10068129E+03    0.97634923E+02    0.10242119E+03
H     0.99917481E+02    0.98148037E+02    0.10199663E+03
H     0.10075275E+03    0.96678853E+02    0.10208576E+03
O     0.98261863E+02    0.97911635E+02    0.99040221E+02
H     0.98968833E+02    0.97153887E+02    0.99043194E+02
H     0.97293107E+02    0.97554196E+02    0.99240851E+02
O     0.99905265E+02    0.95558304E+02    0.99226860E+02
H     0.99734761E+02    0.95182325E+02    0.10016833E+03
H     0.10066086E+03    0.95075540E+02    0.98729390E+02
O     0.96461721E+02    0.10210559E+03    0.97402724E+02
H     0.96453508E+02    0.10240091E+03    0.96434594E+02
H     0.97237181E+02    0.10143867E+03    0.97548023E+02
O     0.98252652E+02    0.89962043E+02    0.10057617E+03
H     0.97527547E+02    0.89282456E+02    0.10026035E+03
H     0.98050561E+02    0.90789169E+02    0.10007738E+03
O     0.10167915E+03    0.96843512E+02    0.10492261E+03
H     0.10146730E+03    0.97217469E+02    0.10403575E+03
H     0.10249520E+03    0.97276712E+02    0.10535975E+03
