          97
Time step:               26500 Sim. Time [au]      265000.00
C     0.94957640E+02    0.91095221E+02    0.10619568E+03
H     0.94786818E+02    0.90474174E+02    0.10703530E+03
H     0.93944909E+02    0.91228664E+02    0.10558955E+03
H     0.95842077E+02    0.90815464E+02    0.10567319E+03
H     0.95249840E+02    0.92144084E+02    0.10650756E+03
C     0.92264645E+02    0.92716315E+02    0.10299756E+03
O     0.92133600E+02    0.93245042E+02    0.10198927E+03
O     0.98733829E+02    0.89695580E+02    0.10445814E+03
H     0.98907430E+02    0.90053311E+02    0.10542622E+03
H     0.99644469E+02    0.89564656E+02    0.10410229E+03
O     0.99208947E+02    0.96648533E+02    0.10550789E+03
H     0.99251449E+02    0.97358008E+02    0.10620559E+03
H     0.99704086E+02    0.96928662E+02    0.10465513E+03
O     0.10184534E+03    0.94934019E+02    0.10315896E+03
H     0.10162169E+03    0.94248750E+02    0.10390445E+03
H     0.10159603E+03    0.95861776E+02    0.10350501E+03
O     0.96685611E+02    0.98508776E+02    0.98348698E+02
H     0.96490275E+02    0.97487181E+02    0.98340004E+02
H     0.97480858E+02    0.98712449E+02    0.98877666E+02
O     0.95209104E+02    0.97471915E+02    0.10338378E+03
H     0.94350909E+02    0.97047597E+02    0.10377186E+03
H     0.95971448E+02    0.96951981E+02    0.10378540E+03
O     0.95072291E+02    0.91456262E+02    0.10105373E+03
H     0.95148850E+02    0.92330051E+02    0.10050538E+03
H     0.94059658E+02    0.91206908E+02    0.10105445E+03
O     0.97752351E+02    0.94240768E+02    0.10250097E+03
H     0.97555645E+02    0.93346184E+02    0.10288449E+03
H     0.97367194E+02    0.94972664E+02    0.10308646E+03
O     0.99580923E+02    0.91463857E+02    0.10133436E+03
H     0.98735448E+02    0.91402080E+02    0.10075397E+03
H     0.10005557E+03    0.92360810E+02    0.10132009E+03
O     0.95410682E+02    0.94868386E+02    0.95857993E+02
H     0.95893727E+02    0.94939550E+02    0.94960956E+02
H     0.96067387E+02    0.95142891E+02    0.96610536E+02
O     0.10155494E+03    0.93134734E+02    0.10507949E+03
H     0.10226563E+03    0.92943653E+02    0.10574756E+03
H     0.10127660E+03    0.92279793E+02    0.10451806E+03
O     0.99557840E+02    0.97750366E+02    0.10133286E+03
H     0.99509578E+02    0.97351882E+02    0.10041290E+03
H     0.98691706E+02    0.98228586E+02    0.10154017E+03
O     0.94066685E+02    0.99021593E+02    0.98671666E+02
H     0.94967907E+02    0.99016658E+02    0.98206768E+02
H     0.93556364E+02    0.98145269E+02    0.98601399E+02
O     0.90945319E+02    0.97816200E+02    0.96652940E+02
H     0.91472321E+02    0.98688380E+02    0.96476785E+02
H     0.91100312E+02    0.97101554E+02    0.95941191E+02
O     0.92450556E+02    0.96869892E+02    0.98586203E+02
H     0.91810868E+02    0.97251593E+02    0.97900372E+02
H     0.92973577E+02    0.96106000E+02    0.98214137E+02
O     0.96080280E+02    0.94102704E+02    0.10019330E+03
H     0.95403490E+02    0.94869688E+02    0.10043117E+03
H     0.96732793E+02    0.94069800E+02    0.10091469E+03
O     0.96961552E+02    0.93425213E+02    0.10529220E+03
H     0.97056427E+02    0.92700152E+02    0.10457650E+03
H     0.97719785E+02    0.93529159E+02    0.10596436E+03
O     0.94427180E+02    0.96072570E+02    0.10075084E+03
H     0.94796673E+02    0.96770227E+02    0.10138500E+03
H     0.93492671E+02    0.96168020E+02    0.10046971E+03
O     0.97182588E+02    0.91659377E+02    0.10306852E+03
H     0.97735616E+02    0.90868390E+02    0.10337211E+03
H     0.96536983E+02    0.91387413E+02    0.10230175E+03
O     0.10012557E+03    0.94286425E+02    0.10116996E+03
H     0.99206684E+02    0.94267593E+02    0.10163424E+03
H     0.10080626E+03    0.94511089E+02    0.10189300E+03
O     0.96783709E+02    0.95875763E+02    0.10455375E+03
H     0.96670657E+02    0.94902243E+02    0.10487993E+03
H     0.97703551E+02    0.96239152E+02    0.10494609E+03
O     0.93308139E+02    0.95574525E+02    0.10474082E+03
H     0.94047572E+02    0.95023642E+02    0.10512091E+03
H     0.92467906E+02    0.95607113E+02    0.10532141E+03
O     0.99161709E+02    0.94009059E+02    0.10668252E+03
H     0.99985084E+02    0.93674071E+02    0.10617519E+03
H     0.99008211E+02    0.94965523E+02    0.10659669E+03
O     0.92505948E+02    0.99902804E+02    0.96794804E+02
H     0.92421359E+02    0.10086846E+03    0.96701016E+02
H     0.93167532E+02    0.99678958E+02    0.97573485E+02
O     0.10101569E+03    0.97546998E+02    0.10356051E+03
H     0.10048308E+03    0.97566396E+02    0.10271232E+03
H     0.10159762E+03    0.98389737E+02    0.10350461E+03
O     0.95033259E+02    0.10057381E+03    0.10087573E+03
H     0.94470462E+02    0.10128339E+03    0.10130329E+03
H     0.94525573E+02    0.99994948E+02    0.10015229E+03
O     0.97060164E+02    0.95490247E+02    0.98150840E+02
H     0.98065366E+02    0.95394335E+02    0.98327843E+02
H     0.96538602E+02    0.95065328E+02    0.98909141E+02
O     0.99672504E+02    0.95386026E+02    0.98777001E+02
H     0.10003394E+03    0.94955849E+02    0.99620890E+02
H     0.10033211E+03    0.95548990E+02    0.98016037E+02
O     0.93051668E+02    0.94510307E+02    0.97396693E+02
H     0.92982660E+02    0.93595181E+02    0.97813570E+02
H     0.93808816E+02    0.94635627E+02    0.96686105E+02
O     0.10122321E+03    0.91056516E+02    0.10341822E+03
H     0.10217948E+03    0.90745660E+02    0.10317622E+03
H     0.10056895E+03    0.90924126E+02    0.10266738E+03
O     0.97018128E+02    0.98842117E+02    0.10175931E+03
H     0.96446212E+02    0.99621088E+02    0.10147549E+03
H     0.96473274E+02    0.98322022E+02    0.10245865E+03
