          97
Time step:               17500 Sim. Time [au]      175000.00
C     0.93621842E+02    0.95695194E+02    0.11015522E+03
H     0.93325451E+02    0.95400968E+02    0.11125508E+03
H     0.93791687E+02    0.95022386E+02    0.10938609E+03
H     0.94473183E+02    0.96354607E+02    0.11032811E+03
H     0.92747394E+02    0.96362712E+02    0.10989497E+03
C     0.94289188E+02    0.94403689E+02    0.10436899E+03
O     0.94476938E+02    0.94952986E+02    0.10334694E+03
O     0.98652852E+02    0.95379580E+02    0.10715368E+03
H     0.99002554E+02    0.95296297E+02    0.10811547E+03
H     0.99434439E+02    0.95131513E+02    0.10650732E+03
O     0.99509642E+02    0.99377360E+02    0.10263768E+03
H     0.98843308E+02    0.10013878E+03    0.10273697E+03
H     0.10002378E+03    0.99445343E+02    0.10172466E+03
O     0.10103115E+03    0.96901578E+02    0.10304031E+03
H     0.10192716E+03    0.97067588E+02    0.10349819E+03
H     0.10037441E+03    0.97714249E+02    0.10293478E+03
O     0.95807013E+02    0.94796102E+02    0.97751318E+02
H     0.96403118E+02    0.94016572E+02    0.97842384E+02
H     0.96302936E+02    0.95619551E+02    0.98113260E+02
O     0.95789636E+02    0.97131938E+02    0.10117862E+03
H     0.94832961E+02    0.96955682E+02    0.10109800E+03
H     0.96088018E+02    0.97127995E+02    0.10212739E+03
O     0.98270166E+02    0.90665318E+02    0.10258161E+03
H     0.97509543E+02    0.91213006E+02    0.10225268E+03
H     0.98711284E+02    0.90138994E+02    0.10183375E+03
O     0.97661056E+02    0.94626621E+02    0.10275763E+03
H     0.97752719E+02    0.94021080E+02    0.10355088E+03
H     0.97598114E+02    0.95663963E+02    0.10302902E+03
O     0.10051191E+03    0.94281966E+02    0.10494193E+03
H     0.99885807E+02    0.93495072E+02    0.10491279E+03
H     0.10070000E+03    0.94711810E+02    0.10400414E+03
O     0.95085674E+02    0.91773393E+02    0.96749848E+02
H     0.95233374E+02    0.92603090E+02    0.96127047E+02
H     0.95768689E+02    0.91833693E+02    0.97543699E+02
O     0.10261073E+03    0.97778320E+02    0.10537429E+03
H     0.10331659E+03    0.98352914E+02    0.10574994E+03
H     0.10272689E+03    0.96756371E+02    0.10541891E+03
O     0.99395073E+02    0.96970107E+02    0.99082129E+02
H     0.99446411E+02    0.96355519E+02    0.99914377E+02
H     0.98451562E+02    0.96890095E+02    0.98681239E+02
O     0.93141791E+02    0.94448183E+02    0.97073043E+02
H     0.94171383E+02    0.94432237E+02    0.97118217E+02
H     0.92652289E+02    0.93773414E+02    0.97648007E+02
O     0.90088269E+02    0.92971427E+02    0.10037747E+03
H     0.89959626E+02    0.93945989E+02    0.10033255E+03
H     0.89528091E+02    0.92541405E+02    0.10116383E+03
O     0.92259644E+02    0.92550913E+02    0.98800003E+02
H     0.91417879E+02    0.92577572E+02    0.99376497E+02
H     0.92362985E+02    0.91667036E+02    0.98294243E+02
O     0.96638996E+02    0.92481443E+02    0.10160970E+03
H     0.95619988E+02    0.92525938E+02    0.10150840E+03
H     0.97077099E+02    0.93369059E+02    0.10182467E+03
O     0.97453731E+02    0.97582183E+02    0.10613473E+03
H     0.97634098E+02    0.96854156E+02    0.10678989E+03
H     0.98322913E+02    0.98120813E+02    0.10592662E+03
O     0.94420291E+02    0.93297989E+02    0.10036083E+03
H     0.94871715E+02    0.93958844E+02    0.99701822E+02
H     0.93722624E+02    0.92769994E+02    0.99843703E+02
O     0.98279512E+02    0.92604761E+02    0.10443083E+03
H     0.97620958E+02    0.92460259E+02    0.10521247E+03
H     0.98612654E+02    0.91738841E+02    0.10394656E+03
O     0.99643521E+02    0.95234591E+02    0.10107343E+03
H     0.98831840E+02    0.94821038E+02    0.10154985E+03
H     0.10017373E+03    0.95802312E+02    0.10170677E+03
O     0.97345940E+02    0.97449007E+02    0.10341538E+03
H     0.97239888E+02    0.97543550E+02    0.10442258E+03
H     0.98019766E+02    0.98127890E+02    0.10305294E+03
O     0.93296422E+02    0.96318551E+02    0.10061397E+03
H     0.94059194E+02    0.95678385E+02    0.10084185E+03
H     0.92467113E+02    0.95800653E+02    0.10029581E+03
O     0.99854676E+02    0.98666808E+02    0.10540661E+03
H     0.10071721E+03    0.98191451E+02    0.10562134E+03
H     0.99876764E+02    0.99051743E+02    0.10447245E+03
O     0.90230655E+02    0.95790691E+02    0.10017018E+03
H     0.90066509E+02    0.96452219E+02    0.10090511E+03
H     0.90154119E+02    0.96119866E+02    0.99234835E+02
O     0.10077860E+03    0.99158665E+02    0.10006662E+03
H     0.10047504E+03    0.98233579E+02    0.99769832E+02
H     0.10144917E+03    0.99560671E+02    0.99424149E+02
O     0.90562978E+02    0.95664107E+02    0.97067765E+02
H     0.91537959E+02    0.95445990E+02    0.96990550E+02
H     0.89964273E+02    0.95103431E+02    0.96463858E+02
O     0.97004782E+02    0.92406696E+02    0.98516578E+02
H     0.97952122E+02    0.92771318E+02    0.98409105E+02
H     0.96737884E+02    0.92186529E+02    0.99475406E+02
O     0.99530644E+02    0.93760863E+02    0.98483533E+02
H     0.99674674E+02    0.94250572E+02    0.99332706E+02
H     0.10020684E+03    0.94001831E+02    0.97768326E+02
O     0.92868266E+02    0.90186204E+02    0.97430655E+02
H     0.92742508E+02    0.89382753E+02    0.96840376E+02
H     0.93712384E+02    0.90708111E+02    0.97137190E+02
O     0.10281313E+03    0.95053278E+02    0.10610152E+03
H     0.10331255E+03    0.94268473E+02    0.10662412E+03
H     0.10194063E+03    0.94708457E+02    0.10583496E+03
O     0.96751411E+02    0.97557363E+02    0.98650361E+02
H     0.96534691E+02    0.98454344E+02    0.98266806E+02
H     0.96261881E+02    0.97353446E+02    0.99544333E+02
