          97
Time step:               36500 Sim. Time [au]      365000.00
C     0.85573298E+02    0.86383290E+02    0.99719109E+02
H     0.86630820E+02    0.86669990E+02    0.99595059E+02
H     0.85202308E+02    0.86072628E+02    0.98791771E+02
H     0.84932932E+02    0.87204071E+02    0.10017732E+03
H     0.85406892E+02    0.85426956E+02    0.10030830E+03
C     0.87725034E+02    0.85997042E+02    0.10144319E+03
O     0.88422044E+02    0.85706242E+02    0.10231933E+03
O     0.97137432E+02    0.91500535E+02    0.10320003E+03
H     0.97663067E+02    0.90917824E+02    0.10259531E+03
H     0.97816845E+02    0.91874267E+02    0.10388305E+03
O     0.98442484E+02    0.95659195E+02    0.10575926E+03
H     0.98063281E+02    0.96601994E+02    0.10594849E+03
H     0.99397886E+02    0.95846116E+02    0.10550855E+03
O     0.10044006E+03    0.92936053E+02    0.10272091E+03
H     0.10045413E+03    0.92293485E+02    0.10193496E+03
H     0.10077450E+03    0.92553254E+02    0.10359832E+03
O     0.98002534E+02    0.98352258E+02    0.10131236E+03
H     0.98139286E+02    0.97874412E+02    0.10039939E+03
H     0.97319413E+02    0.97875981E+02    0.10190727E+03
O     0.96254948E+02    0.97327363E+02    0.10297632E+03
H     0.95429522E+02    0.97934347E+02    0.10306262E+03
H     0.96131197E+02    0.96483442E+02    0.10359597E+03
O     0.97560595E+02    0.93941765E+02    0.97769384E+02
H     0.96964024E+02    0.94532070E+02    0.98282774E+02
H     0.98479398E+02    0.94340061E+02    0.97570848E+02
O     0.96500079E+02    0.94410870E+02    0.10148335E+03
H     0.95816610E+02    0.93678328E+02    0.10125780E+03
H     0.96469455E+02    0.94646743E+02    0.10246450E+03
O     0.97346679E+02    0.91707124E+02    0.99445626E+02
H     0.97353563E+02    0.92256792E+02    0.98546682E+02
H     0.96486495E+02    0.91941563E+02    0.99939303E+02
O     0.98100845E+02    0.10033758E+03    0.97794053E+02
H     0.98475426E+02    0.10092757E+03    0.98545099E+02
H     0.98145004E+02    0.99352867E+02    0.98141427E+02
O     0.10076994E+03    0.90769884E+02    0.10106016E+03
H     0.10130656E+03    0.90406465E+02    0.10031006E+03
H     0.99761174E+02    0.90442635E+02    0.10093176E+03
O     0.10093892E+03    0.95960127E+02    0.10492946E+03
H     0.10048368E+03    0.96164301E+02    0.10404251E+03
H     0.10181668E+03    0.96511224E+02    0.10488361E+03
O     0.95759287E+02    0.10049027E+03    0.10139239E+03
H     0.96570947E+02    0.99894744E+02    0.10155416E+03
H     0.95490961E+02    0.10039190E+03    0.10040257E+03
O     0.92723395E+02    0.10259010E+03    0.99569057E+02
H     0.93087417E+02    0.10261038E+03    0.10054618E+03
H     0.91769274E+02    0.10300389E+03    0.99593347E+02
O     0.94487236E+02    0.10064956E+03    0.98999954E+02
H     0.93848196E+02    0.10145047E+03    0.99112062E+02
H     0.94728311E+02    0.10065138E+03    0.98015938E+02
O     0.96268897E+02    0.95880240E+02    0.99256078E+02
H     0.95606692E+02    0.96640978E+02    0.99396463E+02
H     0.96337896E+02    0.95271269E+02    0.10009561E+03
O     0.95133056E+02    0.92273491E+02    0.10496390E+03
H     0.95294502E+02    0.91783300E+02    0.10583379E+03
H     0.96001336E+02    0.92235897E+02    0.10436241E+03
O     0.94465995E+02    0.97812521E+02    0.99986776E+02
H     0.93778429E+02    0.97770585E+02    0.10075173E+03
H     0.94550163E+02    0.98673845E+02    0.99476716E+02
O     0.95246337E+02    0.91992395E+02    0.10134873E+03
H     0.95986215E+02    0.91850661E+02    0.10206290E+03
H     0.94639074E+02    0.91223428E+02    0.10125391E+03
O     0.99100892E+02    0.95031813E+02    0.10123846E+03
H     0.98125914E+02    0.94777991E+02    0.10127117E+03
H     0.99638033E+02    0.94356040E+02    0.10180337E+03
O     0.96017041E+02    0.95000137E+02    0.10416488E+03
H     0.95499234E+02    0.94127719E+02    0.10422125E+03
H     0.96720518E+02    0.95139184E+02    0.10490982E+03
O     0.93836753E+02    0.98816903E+02    0.10287552E+03
H     0.94555289E+02    0.99411164E+02    0.10237288E+03
H     0.92975379E+02    0.99276764E+02    0.10285025E+03
O     0.98232075E+02    0.92948594E+02    0.10583280E+03
H     0.99194614E+02    0.92646162E+02    0.10563201E+03
H     0.98100022E+02    0.93962490E+02    0.10578733E+03
O     0.93560510E+02    0.10203871E+03    0.10214726E+03
H     0.93415175E+02    0.10185007E+03    0.10312793E+03
H     0.94363251E+02    0.10152389E+03    0.10180690E+03
O     0.10097881E+03    0.93272096E+02    0.10614979E+03
H     0.10091249E+03    0.94238362E+02    0.10582806E+03
H     0.10131424E+03    0.93200340E+02    0.10710278E+03
O     0.99938489E+02    0.97061129E+02    0.10273401E+03
H     0.99438845E+02    0.97854670E+02    0.10226512E+03
H     0.99708984E+02    0.96167442E+02    0.10223674E+03
O     0.98397497E+02    0.97552000E+02    0.98817039E+02
H     0.99214084E+02    0.97057165E+02    0.98458014E+02
H     0.97558358E+02    0.96983450E+02    0.98825169E+02
O     0.10060002E+03    0.95694073E+02    0.98774606E+02
H     0.99961372E+02    0.95473822E+02    0.99496835E+02
H     0.10151763E+03    0.95849062E+02    0.99138147E+02
O     0.95708105E+02    0.10068493E+03    0.96599990E+02
H     0.95794025E+02    0.10068309E+03    0.95613414E+02
H     0.96623071E+02    0.10064310E+03    0.97030829E+02
O     0.98359884E+02    0.89755061E+02    0.10113529E+03
H     0.98270341E+02    0.88781183E+02    0.10102836E+03
H     0.97847459E+02    0.90241625E+02    0.10035616E+03
O     0.10237888E+03    0.97876007E+02    0.10352588E+03
H     0.10136704E+03    0.97737189E+02    0.10322250E+03
H     0.10278754E+03    0.98639982E+02    0.10305875E+03
