          97
Time step:               18500 Sim. Time [au]      185000.00
C     0.91564964E+02    0.95700719E+02    0.10868175E+03
H     0.91217208E+02    0.96176256E+02    0.10767172E+03
H     0.91851412E+02    0.96551066E+02    0.10929711E+03
H     0.92451338E+02    0.95058990E+02    0.10857264E+03
H     0.90862649E+02    0.94989813E+02    0.10916325E+03
C     0.94128781E+02    0.94725830E+02    0.10355730E+03
O     0.95205083E+02    0.94945973E+02    0.10320607E+03
O     0.98456768E+02    0.94622378E+02    0.10609938E+03
H     0.98814329E+02    0.94425785E+02    0.10704310E+03
H     0.99065690E+02    0.94525662E+02    0.10527818E+03
O     0.98845793E+02    0.99496078E+02    0.10340632E+03
H     0.98002284E+02    0.99971858E+02    0.10301609E+03
H     0.99544340E+02    0.99349709E+02    0.10269605E+03
O     0.10163570E+03    0.96346063E+02    0.10246914E+03
H     0.10220462E+03    0.96511341E+02    0.10332836E+03
H     0.10139451E+03    0.97267371E+02    0.10217163E+03
O     0.95333600E+02    0.94735275E+02    0.98996730E+02
H     0.95945417E+02    0.94179625E+02    0.98386037E+02
H     0.95660549E+02    0.95705693E+02    0.99038527E+02
O     0.95716315E+02    0.97927736E+02    0.10161617E+03
H     0.94988670E+02    0.97293071E+02    0.10126457E+03
H     0.96263362E+02    0.97489846E+02    0.10234026E+03
O     0.98362479E+02    0.90384676E+02    0.10218569E+03
H     0.97870972E+02    0.90984310E+02    0.10150889E+03
H     0.97882016E+02    0.89525692E+02    0.10229580E+03
O     0.98232883E+02    0.94612672E+02    0.10244951E+03
H     0.98222586E+02    0.93881274E+02    0.10319223E+03
H     0.97892777E+02    0.95505982E+02    0.10272350E+03
O     0.10076559E+03    0.94214897E+02    0.10419190E+03
H     0.10028412E+03    0.93356873E+02    0.10394438E+03
H     0.10099832E+03    0.94762001E+02    0.10338184E+03
O     0.95271911E+02    0.91629260E+02    0.96942935E+02
H     0.95065034E+02    0.92426299E+02    0.96346611E+02
H     0.96134076E+02    0.91784030E+02    0.97478359E+02
O     0.10260101E+03    0.96966195E+02    0.10527207E+03
H     0.10356625E+03    0.97315235E+02    0.10539350E+03
H     0.10244408E+03    0.96162762E+02    0.10581477E+03
O     0.99068969E+02    0.97663873E+02    0.99571335E+02
H     0.99523090E+02    0.96751688E+02    0.99604142E+02
H     0.98060244E+02    0.97548034E+02    0.99406997E+02
O     0.92906714E+02    0.94697839E+02    0.97890455E+02
H     0.93875037E+02    0.94655198E+02    0.98256601E+02
H     0.92420971E+02    0.93817361E+02    0.98063648E+02
O     0.89385024E+02    0.93492738E+02    0.99965059E+02
H     0.89872458E+02    0.94390979E+02    0.10015028E+03
H     0.88390599E+02    0.93594211E+02    0.10008231E+03
O     0.91771868E+02    0.92472171E+02    0.99184073E+02
H     0.90798507E+02    0.92535430E+02    0.99528300E+02
H     0.91905144E+02    0.91590268E+02    0.98680193E+02
O     0.96798790E+02    0.92515792E+02    0.10106354E+03
H     0.95797589E+02    0.92541857E+02    0.10119937E+03
H     0.97156662E+02    0.93439021E+02    0.10130047E+03
O     0.97736595E+02    0.97223789E+02    0.10598880E+03
H     0.98000257E+02    0.96227383E+02    0.10617324E+03
H     0.98491674E+02    0.97813230E+02    0.10629392E+03
O     0.94130946E+02    0.93061149E+02    0.10066530E+03
H     0.94690426E+02    0.93605665E+02    0.99970053E+02
H     0.93163060E+02    0.92963394E+02    0.10030655E+03
O     0.98933630E+02    0.92224446E+02    0.10405147E+03
H     0.98153248E+02    0.92126415E+02    0.10465952E+03
H     0.99071262E+02    0.91304910E+02    0.10353663E+03
O     0.99863643E+02    0.95031277E+02    0.10040365E+03
H     0.99109623E+02    0.94999356E+02    0.10107549E+03
H     0.10073655E+03    0.95056316E+02    0.10095819E+03
O     0.97543459E+02    0.97166598E+02    0.10349800E+03
H     0.97462104E+02    0.97137174E+02    0.10454355E+03
H     0.97918804E+02    0.98046530E+02    0.10317734E+03
O     0.93416166E+02    0.96852975E+02    0.10066624E+03
H     0.92864730E+02    0.96039649E+02    0.10091450E+03
H     0.93033138E+02    0.97288214E+02    0.99800904E+02
O     0.10023411E+03    0.98455508E+02    0.10573377E+03
H     0.10107549E+03    0.97972582E+02    0.10542610E+03
H     0.99748031E+02    0.99083263E+02    0.10509035E+03
O     0.90189263E+02    0.96248027E+02    0.10028974E+03
H     0.89376830E+02    0.96839228E+02    0.10046307E+03
H     0.90801473E+02    0.96819315E+02    0.99772115E+02
O     0.10051694E+03    0.98991115E+02    0.10141912E+03
H     0.10003428E+03    0.98484414E+02    0.10070206E+03
H     0.10147858E+03    0.99210924E+02    0.10112909E+03
O     0.92042944E+02    0.97318745E+02    0.98032936E+02
H     0.92547592E+02    0.96411476E+02    0.98040436E+02
H     0.92044122E+02    0.97636772E+02    0.97095780E+02
O     0.97354563E+02    0.92719554E+02    0.98234811E+02
H     0.98315640E+02    0.92934298E+02    0.98063772E+02
H     0.97285102E+02    0.92672217E+02    0.99232067E+02
O     0.10005944E+03    0.93917433E+02    0.97914142E+02
H     0.99885491E+02    0.94394553E+02    0.98796583E+02
H     0.10106971E+03    0.93864648E+02    0.97734768E+02
O     0.92668949E+02    0.90691279E+02    0.97398217E+02
H     0.92361135E+02    0.89907042E+02    0.96843995E+02
H     0.93664654E+02    0.90877483E+02    0.97252557E+02
O     0.10231531E+03    0.93886451E+02    0.10649174E+03
H     0.10246324E+03    0.92942842E+02    0.10676758E+03
H     0.10185997E+03    0.94009495E+02    0.10557620E+03
O     0.96401670E+02    0.97376718E+02    0.98982757E+02
H     0.96137553E+02    0.98020840E+02    0.98200438E+02
H     0.96104305E+02    0.97728561E+02    0.99927637E+02
