          97
Time step:               31500 Sim. Time [au]      315000.00
C     0.88361076E+02    0.90733231E+02    0.10241737E+03
H     0.89302249E+02    0.90396642E+02    0.10299875E+03
H     0.87403853E+02    0.90513792E+02    0.10295237E+03
H     0.88404847E+02    0.90200235E+02    0.10138454E+03
H     0.88493865E+02    0.91785359E+02    0.10229415E+03
C     0.89937859E+02    0.87464695E+02    0.10191680E+03
O     0.89953430E+02    0.87425654E+02    0.10308615E+03
O     0.98152192E+02    0.89785989E+02    0.10431857E+03
H     0.98986917E+02    0.89471499E+02    0.10395393E+03
H     0.98265006E+02    0.90715139E+02    0.10482124E+03
O     0.99021795E+02    0.94849441E+02    0.10610438E+03
H     0.99072431E+02    0.94699532E+02    0.10711297E+03
H     0.99838371E+02    0.95335401E+02    0.10567796E+03
O     0.10098662E+03    0.94044817E+02    0.10325635E+03
H     0.10104015E+03    0.93281109E+02    0.10393152E+03
H     0.10094063E+03    0.94898983E+02    0.10386036E+03
O     0.97406448E+02    0.99015526E+02    0.10022857E+03
H     0.97707546E+02    0.98172062E+02    0.99698134E+02
H     0.97472261E+02    0.98855113E+02    0.10121705E+03
O     0.96047994E+02    0.97100454E+02    0.10252857E+03
H     0.95388032E+02    0.97833666E+02    0.10279513E+03
H     0.96176797E+02    0.96485180E+02    0.10329749E+03
O     0.97037180E+02    0.92517352E+02    0.98032122E+02
H     0.96667220E+02    0.93136084E+02    0.98734210E+02
H     0.96436758E+02    0.91760001E+02    0.97810443E+02
O     0.97395459E+02    0.93655740E+02    0.10217914E+03
H     0.97022083E+02    0.92724055E+02    0.10243037E+03
H     0.97254557E+02    0.94388306E+02    0.10290096E+03
O     0.98914619E+02    0.91644198E+02    0.99888319E+02
H     0.98227459E+02    0.91859455E+02    0.99147896E+02
H     0.99274224E+02    0.92512335E+02    0.10026087E+03
O     0.96230226E+02    0.97534668E+02    0.96793941E+02
H     0.96391783E+02    0.98558398E+02    0.96631654E+02
H     0.96693949E+02    0.97197403E+02    0.97637642E+02
O     0.10113830E+03    0.91383650E+02    0.10427717E+03
H     0.10208777E+03    0.91106523E+02    0.10453342E+03
H     0.10088016E+03    0.90925973E+02    0.10339286E+03
O     0.99853202E+02    0.97155937E+02    0.10286241E+03
H     0.99879805E+02    0.96730167E+02    0.10194810E+03
H     0.99301727E+02    0.98000802E+02    0.10279659E+03
O     0.95124187E+02    0.10036589E+03    0.99768750E+02
H     0.96009671E+02    0.99869069E+02    0.99843078E+02
H     0.94359784E+02    0.99813910E+02    0.99403928E+02
O     0.91903238E+02    0.10099166E+03    0.99005852E+02
H     0.92446296E+02    0.10181784E+03    0.99278915E+02
H     0.90983981E+02    0.10127148E+03    0.98750697E+02
O     0.93201021E+02    0.98612801E+02    0.98946435E+02
H     0.92539511E+02    0.99406512E+02    0.99022995E+02
H     0.92769430E+02    0.97880581E+02    0.98388391E+02
O     0.96423778E+02    0.94466565E+02    0.99910025E+02
H     0.95611312E+02    0.95089784E+02    0.10000095E+03
H     0.96793932E+02    0.94157072E+02    0.10083143E+03
O     0.95773082E+02    0.92608949E+02    0.10526974E+03
H     0.94978827E+02    0.92074365E+02    0.10482499E+03
H     0.96630073E+02    0.92108262E+02    0.10520091E+03
O     0.94669074E+02    0.96508796E+02    0.10028846E+03
H     0.95087776E+02    0.96856902E+02    0.10114558E+03
H     0.94041564E+02    0.97212586E+02    0.99842444E+02
O     0.96592146E+02    0.91098108E+02    0.10235381E+03
H     0.97066913E+02    0.90481489E+02    0.10297076E+03
H     0.97015445E+02    0.91006938E+02    0.10142524E+03
O     0.99704166E+02    0.94043857E+02    0.10082745E+03
H     0.98836215E+02    0.94160454E+02    0.10130887E+03
H     0.10042238E+03    0.93990814E+02    0.10156055E+03
O     0.96747194E+02    0.95095349E+02    0.10446057E+03
H     0.96206735E+02    0.94271196E+02    0.10464422E+03
H     0.97572904E+02    0.95206962E+02    0.10507636E+03
O     0.94521139E+02    0.99361605E+02    0.10259828E+03
H     0.95186259E+02    0.99771092E+02    0.10196704E+03
H     0.93565481E+02    0.99462279E+02    0.10227353E+03
O     0.98707767E+02    0.91920630E+02    0.10557636E+03
H     0.99673799E+02    0.91745093E+02    0.10548059E+03
H     0.98627614E+02    0.92812394E+02    0.10598377E+03
O     0.94029455E+02    0.10281223E+03    0.99207020E+02
H     0.94460898E+02    0.10329520E+03    0.98363126E+02
H     0.94512532E+02    0.10195132E+03    0.99451669E+02
O     0.10094621E+03    0.96307608E+02    0.10512415E+03
H     0.10050974E+03    0.96687384E+02    0.10427958E+03
H     0.10117758E+03    0.97007120E+02    0.10578961E+03
O     0.97383332E+02    0.10141782E+03    0.10175414E+03
H     0.97229190E+02    0.10113171E+03    0.10079064E+03
H     0.96777751E+02    0.10218105E+03    0.10199554E+03
O     0.97846199E+02    0.96766150E+02    0.98950691E+02
H     0.98829156E+02    0.96802057E+02    0.98671473E+02
H     0.97486410E+02    0.95797271E+02    0.99100384E+02
O     0.10030157E+03    0.95707197E+02    0.98779639E+02
H     0.10016598E+03    0.94909537E+02    0.99456506E+02
H     0.10086151E+03    0.95354626E+02    0.98017001E+02
O     0.93277164E+02    0.96536155E+02    0.97074333E+02
H     0.92860051E+02    0.95787937E+02    0.96501379E+02
H     0.94236391E+02    0.96823734E+02    0.96825948E+02
O     0.10037535E+03    0.89964211E+02    0.10182196E+03
H     0.10017224E+03    0.88954077E+02    0.10165429E+03
H     0.99747513E+02    0.90589287E+02    0.10127794E+03
O     0.98081522E+02    0.99246025E+02    0.10319950E+03
H     0.97800200E+02    0.10009870E+03    0.10276616E+03
H     0.97254327E+02    0.98789255E+02    0.10363485E+03
