          97
Time step:                6000 Sim. Time [au]       60000.00
C     0.10103206E+03    0.92616157E+02    0.10417065E+03
H     0.10057533E+03    0.91646269E+02    0.10388001E+03
H     0.10050152E+03    0.93022493E+02    0.10508942E+03
H     0.10086276E+03    0.93302961E+02    0.10328636E+03
H     0.10203590E+03    0.92372678E+02    0.10444371E+03
C     0.94948917E+02    0.97627235E+02    0.10486873E+03
O     0.93800569E+02    0.97834751E+02    0.10487424E+03
O     0.91529153E+02    0.99452762E+02    0.10189386E+03
H     0.91419909E+02    0.99159297E+02    0.10286785E+03
H     0.91216130E+02    0.98882199E+02    0.10111672E+03
O     0.96918079E+02    0.97790440E+02    0.98816866E+02
H     0.96437853E+02    0.97870673E+02    0.97959251E+02
H     0.97924423E+02    0.97857247E+02    0.98566106E+02
O     0.99857032E+02    0.98340345E+02    0.10070883E+03
H     0.99167657E+02    0.98790107E+02    0.10132436E+03
H     0.99657932E+02    0.98497087E+02    0.99710894E+02
O     0.96836286E+02    0.91798801E+02    0.99235632E+02
H     0.97616047E+02    0.91599110E+02    0.99825383E+02
H     0.96666276E+02    0.92810579E+02    0.99111681E+02
O     0.94814689E+02    0.95654748E+02    0.99748000E+02
H     0.94204384E+02    0.94996817E+02    0.10023830E+03
H     0.95089788E+02    0.96360980E+02    0.10042597E+03
O     0.97650799E+02    0.93496109E+02    0.10530482E+03
H     0.97795444E+02    0.93263409E+02    0.10432467E+03
H     0.96916294E+02    0.92913994E+02    0.10567697E+03
O     0.97330860E+02    0.95800185E+02    0.10270146E+03
H     0.97599993E+02    0.96235330E+02    0.10359048E+03
H     0.96542935E+02    0.96321156E+02    0.10231895E+03
O     0.98305229E+02    0.98579698E+02    0.10517029E+03
H     0.98753203E+02    0.97676965E+02    0.10499959E+03
H     0.98343240E+02    0.98939448E+02    0.10609782E+03
O     0.99637472E+02    0.89375491E+02    0.10183928E+03
H     0.10055045E+03    0.89077546E+02    0.10151612E+03
H     0.99311396E+02    0.90315352E+02    0.10154739E+03
O     0.98073070E+02    0.10147421E+03    0.10092470E+03
H     0.98983603E+02    0.10195237E+03    0.10069962E+03
H     0.98144773E+02    0.10094971E+03    0.10175762E+03
O     0.99278521E+02    0.95202095E+02    0.98524184E+02
H     0.99831765E+02    0.94546757E+02    0.99057604E+02
H     0.98313346E+02    0.94812291E+02    0.98441738E+02
O     0.95030328E+02    0.89975674E+02    0.10027252E+03
H     0.95620640E+02    0.90595337E+02    0.99682535E+02
H     0.95594956E+02    0.89122854E+02    0.10049505E+03
O     0.92921627E+02    0.94508784E+02    0.10390921E+03
H     0.92458311E+02    0.95310033E+02    0.10436267E+03
H     0.92609462E+02    0.93584682E+02    0.10425712E+03
O     0.96647041E+02    0.87837893E+02    0.10122025E+03
H     0.97452958E+02    0.87522153E+02    0.10071305E+03
H     0.96859725E+02    0.88102263E+02    0.10220045E+03
O     0.97372562E+02    0.93265181E+02    0.10240683E+03
H     0.96502891E+02    0.92760472E+02    0.10269990E+03
H     0.97339927E+02    0.94256798E+02    0.10258298E+03
O     0.94208150E+02    0.99945175E+02    0.10185726E+03
H     0.93214772E+02    0.99937007E+02    0.10187940E+03
H     0.94526181E+02    0.10082406E+03    0.10139566E+03
O     0.95423652E+02    0.91301542E+02    0.10286694E+03
H     0.95370178E+02    0.90709455E+02    0.10202866E+03
H     0.94535543E+02    0.91294481E+02    0.10335158E+03
O     0.99422923E+02    0.96320144E+02    0.10465466E+03
H     0.99902806E+02    0.96208586E+02    0.10382026E+03
H     0.99228879E+02    0.95441666E+02    0.10519687E+03
O     0.99877810E+02    0.95665860E+02    0.10188511E+03
H     0.98893117E+02    0.95608786E+02    0.10214165E+03
H     0.10015555E+03    0.96566316E+02    0.10147861E+03
O     0.95857265E+02    0.97697987E+02    0.10128856E+03
H     0.95254220E+02    0.98466659E+02    0.10146283E+03
H     0.96358716E+02    0.97793112E+02    0.10039909E+03
O     0.93373082E+02    0.93814319E+02    0.10136912E+03
H     0.93455730E+02    0.94047394E+02    0.10236284E+03
H     0.93270082E+02    0.92851283E+02    0.10111695E+03
O     0.95381578E+02    0.10177868E+03    0.10011068E+03
H     0.96346087E+02    0.10176475E+03    0.10028656E+03
H     0.95095974E+02    0.10116286E+03    0.99344318E+02
O     0.92536843E+02    0.91578213E+02    0.10364898E+03
H     0.92060047E+02    0.90842996E+02    0.10415119E+03
H     0.92408336E+02    0.91372785E+02    0.10266556E+03
O     0.99582787E+02    0.97657317E+02    0.97948264E+02
H     0.99568143E+02    0.96713485E+02    0.98311202E+02
H     0.99342122E+02    0.97702118E+02    0.96946572E+02
O     0.92526107E+02    0.91052364E+02    0.10075392E+03
H     0.91909961E+02    0.90843076E+02    0.99975770E+02
H     0.93463510E+02    0.90735530E+02    0.10052386E+03
O     0.98836762E+02    0.91749770E+02    0.10099196E+03
H     0.99514314E+02    0.92420064E+02    0.10056203E+03
H     0.98200528E+02    0.92259710E+02    0.10164567E+03
O     0.10070073E+03    0.93602730E+02    0.10046116E+03
H     0.10040209E+03    0.94412864E+02    0.10101808E+03
H     0.10168332E+03    0.93383878E+02    0.10072554E+03
O     0.97665489E+02    0.89286398E+02    0.10359078E+03
H     0.97198838E+02    0.90144994E+02    0.10359000E+03
H     0.98526721E+02    0.89191554E+02    0.10310472E+03
O     0.97967939E+02    0.99325655E+02    0.10263490E+03
H     0.96999971E+02    0.99105378E+02    0.10244076E+03
H     0.98154064E+02    0.98988562E+02    0.10358543E+03
O     0.96681137E+02    0.94294838E+02    0.98143174E+02
H     0.96158471E+02    0.93885673E+02    0.97386893E+02
H     0.96109948E+02    0.94860899E+02    0.98719847E+02
