          97
Time step:               14000 Sim. Time [au]      140000.00
C     0.99682276E+02    0.94198596E+02    0.10944261E+03
H     0.99311947E+02    0.94121304E+02    0.10845246E+03
H     0.10043990E+03    0.95032552E+02    0.10934601E+03
H     0.10016082E+03    0.93230519E+02    0.10969719E+03
H     0.98884579E+02    0.94251258E+02    0.11025200E+03
C     0.93824665E+02    0.94263536E+02    0.10653143E+03
O     0.94410440E+02    0.93408321E+02    0.10601965E+03
O     0.96026842E+02    0.99897263E+02    0.10795077E+03
H     0.95135641E+02    0.99521991E+02    0.10816191E+03
H     0.96694337E+02    0.10000855E+03    0.10870570E+03
O     0.98133366E+02    0.99359999E+02    0.10110435E+03
H     0.97374939E+02    0.99540796E+02    0.10046612E+03
H     0.99058886E+02    0.99326927E+02    0.10063987E+03
O     0.10213623E+03    0.96623630E+02    0.10103546E+03
H     0.10303488E+03    0.96407846E+02    0.10062554E+03
H     0.10176297E+03    0.97391258E+02    0.10051521E+03
O     0.95262782E+02    0.93771875E+02    0.98107780E+02
H     0.96003382E+02    0.93082455E+02    0.97998347E+02
H     0.95678836E+02    0.94650775E+02    0.98456174E+02
O     0.94848850E+02    0.96839930E+02    0.10115001E+03
H     0.94130474E+02    0.96187219E+02    0.10134124E+03
H     0.95323851E+02    0.97062615E+02    0.10203271E+03
O     0.96907100E+02    0.92086298E+02    0.10418856E+03
H     0.97199402E+02    0.91974907E+02    0.10325813E+03
H     0.96052883E+02    0.91562141E+02    0.10432986E+03
O     0.96773006E+02    0.94948984E+02    0.10300584E+03
H     0.96606004E+02    0.94829886E+02    0.10400341E+03
H     0.97007883E+02    0.95938352E+02    0.10283447E+03
O     0.99175887E+02    0.96417010E+02    0.10561423E+03
H     0.98496689E+02    0.95684897E+02    0.10579167E+03
H     0.98708881E+02    0.97315202E+02    0.10555138E+03
O     0.96725106E+02    0.89690432E+02    0.98355997E+02
H     0.96860715E+02    0.89232906E+02    0.97443493E+02
H     0.96928714E+02    0.90677481E+02    0.98227173E+02
O     0.10138230E+03    0.99958067E+02    0.10386244E+03
H     0.10194989E+03    0.10033763E+03    0.10458760E+03
H     0.10145533E+03    0.98904075E+02    0.10393811E+03
O     0.99425654E+02    0.96152919E+02    0.98748656E+02
H     0.99767917E+02    0.95241543E+02    0.98644285E+02
H     0.98416831E+02    0.96028704E+02    0.98966381E+02
O     0.92894071E+02    0.93027296E+02    0.97085003E+02
H     0.93807299E+02    0.93340725E+02    0.97510493E+02
H     0.92894728E+02    0.91998913E+02    0.96884360E+02
O     0.91666056E+02    0.92241973E+02    0.99424579E+02
H     0.92092913E+02    0.92405421E+02    0.98535185E+02
H     0.91155516E+02    0.93086205E+02    0.99763809E+02
O     0.93046726E+02    0.90393260E+02    0.97741609E+02
H     0.92322945E+02    0.90667437E+02    0.98352726E+02
H     0.93362072E+02    0.89428626E+02    0.97869759E+02
O     0.97101604E+02    0.92781345E+02    0.10141900E+03
H     0.96115518E+02    0.92666369E+02    0.10119247E+03
H     0.97151479E+02    0.93609933E+02    0.10198984E+03
O     0.97601621E+02    0.98892664E+02    0.10552897E+03
H     0.97058305E+02    0.99263699E+02    0.10632565E+03
H     0.98174127E+02    0.99636695E+02    0.10517058E+03
O     0.94352512E+02    0.92742283E+02    0.10054427E+03
H     0.94535478E+02    0.93140553E+02    0.99625105E+02
H     0.93608965E+02    0.92028157E+02    0.10048978E+03
O     0.97526448E+02    0.94175936E+02    0.10578653E+03
H     0.97462859E+02    0.93668601E+02    0.10668833E+03
H     0.97405417E+02    0.93468709E+02    0.10510310E+03
O     0.10053106E+03    0.94178831E+02    0.10140699E+03
H     0.10003769E+03    0.94332675E+02    0.10225677E+03
H     0.10130791E+03    0.94846130E+02    0.10136035E+03
O     0.96733660E+02    0.97807225E+02    0.10308854E+03
H     0.96885403E+02    0.97955401E+02    0.10407606E+03
H     0.97382186E+02    0.98293635E+02    0.10242459E+03
O     0.92858107E+02    0.94971374E+02    0.10127566E+03
H     0.93401692E+02    0.94056969E+02    0.10123967E+03
H     0.91925853E+02    0.95007357E+02    0.10086702E+03
O     0.98834640E+02    0.10078017E+03    0.10394120E+03
H     0.99757266E+02    0.10039923E+03    0.10375830E+03
H     0.98335873E+02    0.10095511E+03    0.10304787E+03
O     0.90619894E+02    0.94834824E+02    0.99825963E+02
H     0.89928284E+02    0.95456006E+02    0.10026254E+03
H     0.91022572E+02    0.95222808E+02    0.98948382E+02
O     0.10025150E+03    0.98849022E+02    0.99255672E+02
H     0.10006975E+03    0.97896478E+02    0.98881620E+02
H     0.10085304E+03    0.99406406E+02    0.98671062E+02
O     0.91572479E+02    0.95538932E+02    0.97346720E+02
H     0.92348060E+02    0.96154393E+02    0.97323660E+02
H     0.91881621E+02    0.94594330E+02    0.97098632E+02
O     0.97550961E+02    0.92289038E+02    0.98774298E+02
H     0.98355182E+02    0.92868934E+02    0.98529836E+02
H     0.97383980E+02    0.92254308E+02    0.99802755E+02
O     0.10035307E+03    0.93618325E+02    0.98762818E+02
H     0.10038158E+03    0.93781011E+02    0.99767289E+02
H     0.10065673E+03    0.92697171E+02    0.98584107E+02
O     0.94486601E+02    0.88425086E+02    0.99015177E+02
H     0.94493074E+02    0.87634630E+02    0.99645356E+02
H     0.95368202E+02    0.88912709E+02    0.98982205E+02
O     0.10146629E+03    0.97161263E+02    0.10410047E+03
H     0.10128573E+03    0.96658966E+02    0.10321909E+03
H     0.10078377E+03    0.96753180E+02    0.10472669E+03
O     0.96425132E+02    0.96227083E+02    0.99135018E+02
H     0.96742024E+02    0.97022554E+02    0.98582602E+02
H     0.95715579E+02    0.96476392E+02    0.99877445E+02
