          97
Time step:                9000 Sim. Time [au]       90000.00
C     0.10201559E+03    0.93120456E+02    0.10448271E+03
H     0.10181539E+03    0.93755737E+02    0.10360341E+03
H     0.10175689E+03    0.93633333E+02    0.10546741E+03
H     0.10311658E+03    0.92965849E+02    0.10457850E+03
H     0.10148059E+03    0.92225021E+02    0.10431550E+03
C     0.94977395E+02    0.95393402E+02    0.10431101E+03
O     0.94399780E+02    0.94419518E+02    0.10442044E+03
O     0.92669703E+02    0.10049010E+03    0.10325109E+03
H     0.92750297E+02    0.10033379E+03    0.10422313E+03
H     0.92475739E+02    0.10147809E+03    0.10320183E+03
O     0.97932612E+02    0.98509961E+02    0.99723755E+02
H     0.97411709E+02    0.97929008E+02    0.99068719E+02
H     0.98917136E+02    0.98688309E+02    0.99424171E+02
O     0.10093459E+03    0.98469151E+02    0.10141172E+03
H     0.10031986E+03    0.98883233E+02    0.10208261E+03
H     0.10085598E+03    0.99021361E+02    0.10055653E+03
O     0.96574128E+02    0.92092341E+02    0.98862753E+02
H     0.97364577E+02    0.92051266E+02    0.99552281E+02
H     0.96545029E+02    0.93029669E+02    0.98408171E+02
O     0.95754813E+02    0.95979139E+02    0.10018697E+03
H     0.94915185E+02    0.95532938E+02    0.10050235E+03
H     0.96224615E+02    0.96509287E+02    0.10092256E+03
O     0.98603254E+02    0.92967253E+02    0.10573535E+03
H     0.98345973E+02    0.92803311E+02    0.10476819E+03
H     0.98954620E+02    0.92125311E+02    0.10613647E+03
O     0.98340805E+02    0.95488182E+02    0.10330976E+03
H     0.98771177E+02    0.95669372E+02    0.10423688E+03
H     0.97696782E+02    0.96190036E+02    0.10293923E+03
O     0.98732448E+02    0.98023362E+02    0.10606025E+03
H     0.99357764E+02    0.97220705E+02    0.10601205E+03
H     0.97998537E+02    0.98113845E+02    0.10672746E+03
O     0.97866028E+02    0.89068122E+02    0.10076380E+03
H     0.98426156E+02    0.88535132E+02    0.10010711E+03
H     0.98055429E+02    0.90089419E+02    0.10087840E+03
O     0.97982207E+02    0.10166645E+03    0.10283350E+03
H     0.98222145E+02    0.10228624E+03    0.10364804E+03
H     0.98379066E+02    0.10076132E+03    0.10303101E+03
O     0.98813167E+02    0.96187431E+02    0.98253735E+02
H     0.99191144E+02    0.95980648E+02    0.99176215E+02
H     0.98077199E+02    0.95496000E+02    0.98030886E+02
O     0.93969054E+02    0.91828942E+02    0.99160108E+02
H     0.94941380E+02    0.91850372E+02    0.98896805E+02
H     0.93747293E+02    0.90958616E+02    0.99564875E+02
O     0.92672329E+02    0.90982361E+02    0.10252665E+03
H     0.92551490E+02    0.90099817E+02    0.10210849E+03
H     0.92129850E+02    0.91710109E+02    0.10210388E+03
O     0.93636784E+02    0.89434512E+02    0.10025621E+03
H     0.92876107E+02    0.88786209E+02    0.10018877E+03
H     0.94334631E+02    0.89168780E+02    0.10099768E+03
O     0.97193046E+02    0.92892662E+02    0.10304423E+03
H     0.96181546E+02    0.92861235E+02    0.10281279E+03
H     0.97581105E+02    0.93846091E+02    0.10298989E+03
O     0.94695944E+02    0.99317546E+02    0.10217197E+03
H     0.93816212E+02    0.99717162E+02    0.10246900E+03
H     0.95205162E+02    0.99899534E+02    0.10155538E+03
O     0.94614370E+02    0.92622023E+02    0.10181857E+03
H     0.94869829E+02    0.92498195E+02    0.10082118E+03
H     0.93875803E+02    0.92007519E+02    0.10219833E+03
O     0.99608097E+02    0.95532379E+02    0.10584567E+03
H     0.10051903E+03    0.95429470E+02    0.10617402E+03
H     0.99165311E+02    0.94563826E+02    0.10586393E+03
O     0.10052529E+03    0.95711077E+02    0.10157198E+03
H     0.99861122E+02    0.95506042E+02    0.10233897E+03
H     0.10090866E+03    0.96649918E+02    0.10164632E+03
O     0.96995868E+02    0.97636056E+02    0.10208707E+03
H     0.96116389E+02    0.98111304E+02    0.10231809E+03
H     0.97315366E+02    0.98008557E+02    0.10119705E+03
O     0.93492741E+02    0.94956255E+02    0.10124534E+03
H     0.93886136E+02    0.94084330E+02    0.10164669E+03
H     0.92542531E+02    0.95054044E+02    0.10157087E+03
O     0.96515361E+02    0.10077346E+03    0.10082744E+03
H     0.97009833E+02    0.10137088E+03    0.10148858E+03
H     0.97114217E+02    0.10003522E+03    0.10041596E+03
O     0.90868219E+02    0.93095360E+02    0.10172901E+03
H     0.89924304E+02    0.93324246E+02    0.10201927E+03
H     0.91035995E+02    0.92866859E+02    0.10074404E+03
O     0.10024124E+03    0.98523797E+02    0.98054576E+02
H     0.10001609E+03    0.97558031E+02    0.98011877E+02
H     0.10068043E+03    0.98729653E+02    0.97131712E+02
O     0.91356985E+02    0.92605629E+02    0.99165076E+02
H     0.90988457E+02    0.92793916E+02    0.98208539E+02
H     0.92374046E+02    0.92380970E+02    0.99137828E+02
O     0.98437561E+02    0.91731819E+02    0.10090339E+03
H     0.99232713E+02    0.92322151E+02    0.10076489E+03
H     0.98115973E+02    0.91985103E+02    0.10186879E+03
O     0.10047023E+03    0.93424628E+02    0.10040401E+03
H     0.10059524E+03    0.94352721E+02    0.10079970E+03
H     0.10133690E+03    0.93210174E+02    0.99879951E+02
O     0.95501196E+02    0.88580408E+02    0.10232872E+03
H     0.95654610E+02    0.89197952E+02    0.10313175E+03
H     0.96375197E+02    0.88444711E+02    0.10176020E+03
O     0.99013346E+02    0.99114184E+02    0.10344751E+03
H     0.98302295E+02    0.98670944E+02    0.10282310E+03
H     0.98998024E+02    0.98672138E+02    0.10434377E+03
O     0.96368136E+02    0.94740193E+02    0.97775392E+02
H     0.95646308E+02    0.94941937E+02    0.97097037E+02
H     0.96174161E+02    0.95132804E+02    0.98665854E+02
