          97
Time step:               29000 Sim. Time [au]      290000.00
C     0.90266323E+02    0.88145492E+02    0.10117924E+03
H     0.91052007E+02    0.88087016E+02    0.10192400E+03
H     0.89293543E+02    0.87798445E+02    0.10168869E+03
H     0.90298684E+02    0.87388702E+02    0.10025819E+03
H     0.90164346E+02    0.89134892E+02    0.10085974E+03
C     0.90844389E+02    0.90794518E+02    0.10417413E+03
O     0.91317641E+02    0.91782985E+02    0.10461177E+03
O     0.98144882E+02    0.89797833E+02    0.10402939E+03
H     0.98802553E+02    0.89584688E+02    0.10328369E+03
H     0.98156299E+02    0.89014770E+02    0.10468847E+03
O     0.99192649E+02    0.95659357E+02    0.10553495E+03
H     0.99088044E+02    0.96145884E+02    0.10641396E+03
H     0.99940743E+02    0.96020000E+02    0.10493521E+03
O     0.10214744E+03    0.94139607E+02    0.10337623E+03
H     0.10183601E+03    0.93308009E+02    0.10390914E+03
H     0.10193368E+03    0.94984928E+02    0.10390795E+03
O     0.97085347E+02    0.98792955E+02    0.99011614E+02
H     0.97637708E+02    0.98203148E+02    0.98354529E+02
H     0.97214121E+02    0.98520760E+02    0.99969544E+02
O     0.95298729E+02    0.97354861E+02    0.10338691E+03
H     0.94660028E+02    0.97885853E+02    0.10401429E+03
H     0.95741382E+02    0.96567810E+02    0.10382826E+03
O     0.97120219E+02    0.91969397E+02    0.99637543E+02
H     0.96745364E+02    0.92928733E+02    0.99771333E+02
H     0.96583545E+02    0.91483762E+02    0.98934399E+02
O     0.97680728E+02    0.94540184E+02    0.10233614E+03
H     0.97453628E+02    0.93558012E+02    0.10241172E+03
H     0.97372168E+02    0.95036254E+02    0.10316298E+03
O     0.99543643E+02    0.91708778E+02    0.10067940E+03
H     0.98613478E+02    0.91907601E+02    0.10026765E+03
H     0.99984294E+02    0.92478406E+02    0.10113867E+03
O     0.96401571E+02    0.95500822E+02    0.96285562E+02
H     0.96560712E+02    0.96244485E+02    0.95593281E+02
H     0.97057530E+02    0.95582020E+02    0.97052697E+02
O     0.10111501E+03    0.91708367E+02    0.10478146E+03
H     0.10179873E+03    0.91471885E+02    0.10544184E+03
H     0.10096251E+03    0.90927603E+02    0.10410692E+03
O     0.99719180E+02    0.97300161E+02    0.10175554E+03
H     0.10000756E+03    0.97050694E+02    0.10080886E+03
H     0.98954877E+02    0.97962370E+02    0.10171062E+03
O     0.94507890E+02    0.99370437E+02    0.98012109E+02
H     0.95478103E+02    0.99088479E+02    0.98063420E+02
H     0.93914655E+02    0.98681897E+02    0.98470252E+02
O     0.90816449E+02    0.99722041E+02    0.99121915E+02
H     0.91504552E+02    0.10040451E+03    0.98725752E+02
H     0.89973893E+02    0.10019370E+03    0.99362336E+02
O     0.92630779E+02    0.97819510E+02    0.99460010E+02
H     0.91824678E+02    0.98443413E+02    0.99287600E+02
H     0.92615625E+02    0.97090376E+02    0.98760972E+02
O     0.96720365E+02    0.94864668E+02    0.99841331E+02
H     0.95899641E+02    0.95412639E+02    0.10011356E+03
H     0.97266736E+02    0.94710733E+02    0.10065299E+03
O     0.95810288E+02    0.92700921E+02    0.10498808E+03
H     0.96004492E+02    0.92358983E+02    0.10402917E+03
H     0.96474157E+02    0.92230232E+02    0.10555811E+03
O     0.94813474E+02    0.96542891E+02    0.10076120E+03
H     0.94921562E+02    0.96710483E+02    0.10175825E+03
H     0.93863729E+02    0.96839994E+02    0.10059003E+03
O     0.96990579E+02    0.91941781E+02    0.10261217E+03
H     0.97279719E+02    0.91177305E+02    0.10319755E+03
H     0.96947826E+02    0.91677996E+02    0.10161517E+03
O     0.10040336E+03    0.94175965E+02    0.10135049E+03
H     0.99542318E+02    0.94497165E+02    0.10179593E+03
H     0.10109960E+03    0.94048255E+02    0.10210739E+03
O     0.96583756E+02    0.95264557E+02    0.10481376E+03
H     0.96187991E+02    0.94322444E+02    0.10500695E+03
H     0.97471083E+02    0.95432886E+02    0.10537806E+03
O     0.93233378E+02    0.98790026E+02    0.10472268E+03
H     0.93125962E+02    0.99369363E+02    0.10553350E+03
H     0.92355138E+02    0.98595291E+02    0.10431136E+03
O     0.98714154E+02    0.92946069E+02    0.10583288E+03
H     0.99570261E+02    0.92402132E+02    0.10557945E+03
H     0.98907726E+02    0.93915971E+02    0.10573108E+03
O     0.92504922E+02    0.10127829E+03    0.97676607E+02
H     0.92445917E+02    0.10184467E+03    0.96844862E+02
H     0.93442779E+02    0.10081939E+03    0.97720039E+02
O     0.10103426E+03    0.96671274E+02    0.10405818E+03
H     0.10042180E+03    0.96841813E+02    0.10325716E+03
H     0.10185805E+03    0.97267316E+02    0.10403328E+03
O     0.95692704E+02    0.10076100E+03    0.10019044E+03
H     0.94778704E+02    0.10113390E+03    0.99901324E+02
H     0.96057414E+02    0.99995564E+02    0.99671824E+02
O     0.98238497E+02    0.96193423E+02    0.98119048E+02
H     0.99210990E+02    0.96284156E+02    0.98360819E+02
H     0.97755246E+02    0.95670053E+02    0.98856073E+02
O     0.10086228E+03    0.95769493E+02    0.99320173E+02
H     0.10073362E+03    0.95101802E+02    0.10010315E+03
H     0.10157695E+03    0.95451014E+02    0.98667098E+02
O     0.93824447E+02    0.95824772E+02    0.97883826E+02
H     0.94359942E+02    0.95754111E+02    0.98765103E+02
H     0.94434159E+02    0.95612394E+02    0.97072625E+02
O     0.10044675E+03    0.90002094E+02    0.10256695E+03
H     0.10075164E+03    0.89115657E+02    0.10212169E+03
H     0.10014818E+03    0.90731982E+02    0.10195274E+03
O     0.97157094E+02    0.99050054E+02    0.10185779E+03
H     0.96594144E+02    0.99768816E+02    0.10144695E+03
H     0.96594803E+02    0.98537876E+02    0.10258077E+03
