          97
Time step:               32000 Sim. Time [au]      320000.00
C     0.88784514E+02    0.90743780E+02    0.10308683E+03
H     0.87837423E+02    0.90239305E+02    0.10341588E+03
H     0.88729786E+02    0.91842773E+02    0.10287134E+03
H     0.89329647E+02    0.90073181E+02    0.10236396E+03
H     0.89511765E+02    0.90719287E+02    0.10391554E+03
C     0.89040035E+02    0.87517343E+02    0.10165125E+03
O     0.89533321E+02    0.86616472E+02    0.10221225E+03
O     0.98161452E+02    0.89112841E+02    0.10391865E+03
H     0.98863248E+02    0.89123790E+02    0.10317687E+03
H     0.98318539E+02    0.89804075E+02    0.10467293E+03
O     0.98893688E+02    0.95078560E+02    0.10645900E+03
H     0.99216952E+02    0.94938314E+02    0.10737580E+03
H     0.99630741E+02    0.95489825E+02    0.10586878E+03
O     0.10120456E+03    0.93723463E+02    0.10313382E+03
H     0.10103855E+03    0.92852982E+02    0.10361789E+03
H     0.10122913E+03    0.94446823E+02    0.10383471E+03
O     0.97094545E+02    0.98463455E+02    0.10074490E+03
H     0.97341716E+02    0.97826684E+02    0.99983046E+02
H     0.96780020E+02    0.97822604E+02    0.10146519E+03
O     0.95610503E+02    0.97268359E+02    0.10255801E+03
H     0.95135702E+02    0.98153187E+02    0.10283399E+03
H     0.95901695E+02    0.96667382E+02    0.10335931E+03
O     0.96883974E+02    0.92130932E+02    0.98402566E+02
H     0.96519624E+02    0.92882085E+02    0.99016490E+02
H     0.96533710E+02    0.92193636E+02    0.97462722E+02
O     0.97380341E+02    0.93692937E+02    0.10206458E+03
H     0.97092567E+02    0.92686319E+02    0.10216764E+03
H     0.97156545E+02    0.94183086E+02    0.10290133E+03
O     0.99079331E+02    0.91489901E+02    0.10000677E+03
H     0.98227044E+02    0.91521782E+02    0.99433521E+02
H     0.99504831E+02    0.92412304E+02    0.99985935E+02
O     0.96156896E+02    0.98243438E+02    0.96983132E+02
H     0.96281959E+02    0.99186664E+02    0.96577891E+02
H     0.96924702E+02    0.97861642E+02    0.97480740E+02
O     0.10094252E+03    0.91183394E+02    0.10419519E+03
H     0.10176838E+03    0.90778329E+02    0.10461584E+03
H     0.10067890E+03    0.90660787E+02    0.10335947E+03
O     0.10003041E+03    0.97252328E+02    0.10310693E+03
H     0.99565390E+02    0.96828827E+02    0.10228290E+03
H     0.99610110E+02    0.98114519E+02    0.10346117E+03
O     0.95346806E+02    0.10038980E+03    0.10005155E+03
H     0.96050298E+02    0.99685727E+02    0.10040592E+03
H     0.94733646E+02    0.99841086E+02    0.99402174E+02
O     0.92061397E+02    0.10114403E+03    0.99037705E+02
H     0.92826340E+02    0.10186756E+03    0.98979309E+02
H     0.91214161E+02    0.10158730E+03    0.99356923E+02
O     0.93473405E+02    0.98945825E+02    0.98755672E+02
H     0.92836997E+02    0.99730106E+02    0.98931717E+02
H     0.93172155E+02    0.98505497E+02    0.97864178E+02
O     0.96264100E+02    0.94576044E+02    0.99753496E+02
H     0.95471209E+02    0.95204783E+02    0.99839026E+02
H     0.96624638E+02    0.94234678E+02    0.10063070E+03
O     0.96142108E+02    0.92728986E+02    0.10561938E+03
H     0.95537028E+02    0.92043738E+02    0.10519018E+03
H     0.97090701E+02    0.92398188E+02    0.10566068E+03
O     0.94421894E+02    0.96521270E+02    0.10001572E+03
H     0.94684770E+02    0.96989441E+02    0.10087841E+03
H     0.93914855E+02    0.97180759E+02    0.99447062E+02
O     0.96728977E+02    0.91084651E+02    0.10242813E+03
H     0.97330796E+02    0.90379317E+02    0.10284140E+03
H     0.96104757E+02    0.90672101E+02    0.10170134E+03
O     0.99697307E+02    0.94400410E+02    0.10093120E+03
H     0.98782774E+02    0.94132514E+02    0.10128427E+03
H     0.10027766E+03    0.94293749E+02    0.10181739E+03
O     0.96701009E+02    0.95292834E+02    0.10436330E+03
H     0.96148314E+02    0.94507131E+02    0.10476485E+03
H     0.97413241E+02    0.95617342E+02    0.10501682E+03
O     0.94142643E+02    0.99705271E+02    0.10252557E+03
H     0.94406105E+02    0.99717632E+02    0.10152510E+03
H     0.93350999E+02    0.10031934E+03    0.10273773E+03
O     0.98677151E+02    0.92103083E+02    0.10532369E+03
H     0.99533206E+02    0.91753022E+02    0.10484203E+03
H     0.98574118E+02    0.93087254E+02    0.10568104E+03
O     0.94142948E+02    0.10277011E+03    0.99506259E+02
H     0.94293492E+02    0.10361695E+03    0.99997032E+02
H     0.94803541E+02    0.10202855E+03    0.99754288E+02
O     0.10102651E+03    0.95682648E+02    0.10509160E+03
H     0.10056756E+03    0.96313555E+02    0.10441083E+03
H     0.10201391E+03    0.95988991E+02    0.10511948E+03
O     0.97894475E+02    0.10107434E+03    0.10154741E+03
H     0.97961771E+02    0.10014107E+03    0.10108023E+03
H     0.97080829E+02    0.10160335E+03    0.10130029E+03
O     0.97643349E+02    0.96701470E+02    0.98548644E+02
H     0.98635129E+02    0.96674894E+02    0.98465576E+02
H     0.97360133E+02    0.95696320E+02    0.98601030E+02
O     0.10030937E+03    0.95934115E+02    0.98606159E+02
H     0.10008319E+03    0.95174226E+02    0.99229466E+02
H     0.10102051E+03    0.96552836E+02    0.98939279E+02
O     0.93543682E+02    0.97400746E+02    0.96360917E+02
H     0.93602316E+02    0.97121872E+02    0.95388479E+02
H     0.94429209E+02    0.97597013E+02    0.96790766E+02
O     0.10017163E+03    0.89827260E+02    0.10185524E+03
H     0.10057647E+03    0.89262395E+02    0.10109666E+03
H     0.99652566E+02    0.90455825E+02    0.10131138E+03
O     0.98446076E+02    0.99343304E+02    0.10376803E+03
H     0.98601251E+02    0.10009189E+03    0.10314478E+03
H     0.97516075E+02    0.99474047E+02    0.10424060E+03
