          97
Time step:               37000 Sim. Time [au]      370000.00
C     0.85725436E+02    0.87135391E+02    0.10042404E+03
H     0.85495395E+02    0.87909501E+02    0.99660519E+02
H     0.84842376E+02    0.86516385E+02    0.10080543E+03
H     0.86191663E+02    0.87673763E+02    0.10124826E+03
H     0.86437441E+02    0.86490307E+02    0.10003187E+03
C     0.87823505E+02    0.85607481E+02    0.10116386E+03
O     0.87602425E+02    0.84508482E+02    0.10141574E+03
O     0.97346495E+02    0.90997746E+02    0.10319743E+03
H     0.97827555E+02    0.90670991E+02    0.10239582E+03
H     0.97990993E+02    0.91257300E+02    0.10396816E+03
O     0.97910586E+02    0.95342688E+02    0.10601330E+03
H     0.97633751E+02    0.95954422E+02    0.10680735E+03
H     0.98901670E+02    0.95316989E+02    0.10587483E+03
O     0.10085084E+03    0.92773385E+02    0.10300667E+03
H     0.10096893E+03    0.92029818E+02    0.10229376E+03
H     0.10117449E+03    0.92456040E+02    0.10391672E+03
O     0.98042035E+02    0.98973636E+02    0.10137194E+03
H     0.98100457E+02    0.98310018E+02    0.10056528E+03
H     0.97407654E+02    0.98506809E+02    0.10201294E+03
O     0.96388810E+02    0.97706143E+02    0.10327184E+03
H     0.95479962E+02    0.98100475E+02    0.10297351E+03
H     0.96197817E+02    0.96831426E+02    0.10373464E+03
O     0.97463252E+02    0.94154341E+02    0.98083958E+02
H     0.97093816E+02    0.94925236E+02    0.98644617E+02
H     0.98084970E+02    0.94481463E+02    0.97299069E+02
O     0.96511431E+02    0.94483785E+02    0.10137059E+03
H     0.96115065E+02    0.93521308E+02    0.10128372E+03
H     0.96204437E+02    0.94832055E+02    0.10227321E+03
O     0.97123395E+02    0.91759588E+02    0.99481906E+02
H     0.97314120E+02    0.92500228E+02    0.98810874E+02
H     0.96186338E+02    0.91850876E+02    0.99787777E+02
O     0.98342922E+02    0.10026293E+03    0.97795876E+02
H     0.98798333E+02    0.10088850E+03    0.98413094E+02
H     0.98229208E+02    0.99290667E+02    0.98075123E+02
O     0.10086245E+03    0.90832936E+02    0.10093859E+03
H     0.10140975E+03    0.90579670E+02    0.10015897E+03
H     0.99934644E+02    0.90397147E+02    0.10089401E+03
O     0.10076738E+03    0.95515428E+02    0.10511989E+03
H     0.10028427E+03    0.95634409E+02    0.10422678E+03
H     0.10155852E+03    0.96129043E+02    0.10507460E+03
O     0.95804663E+02    0.10101432E+03    0.10133989E+03
H     0.96818381E+02    0.10101590E+03    0.10142972E+03
H     0.95498267E+02    0.10078598E+03    0.10040891E+03
O     0.92992966E+02    0.10278641E+03    0.99857415E+02
H     0.93368956E+02    0.10277684E+03    0.10077426E+03
H     0.92944908E+02    0.10370017E+03    0.99475461E+02
O     0.94339079E+02    0.10067246E+03    0.98873788E+02
H     0.93643275E+02    0.10137119E+03    0.99070024E+02
H     0.94826509E+02    0.10076831E+03    0.97948170E+02
O     0.96129280E+02    0.96274248E+02    0.99202021E+02
H     0.95166004E+02    0.96714541E+02    0.99232587E+02
H     0.96386083E+02    0.95827285E+02    0.10006716E+03
O     0.95171218E+02    0.92307237E+02    0.10479542E+03
H     0.95056744E+02    0.91593617E+02    0.10548236E+03
H     0.95931869E+02    0.92106541E+02    0.10415857E+03
O     0.93996771E+02    0.98056302E+02    0.99597533E+02
H     0.93951599E+02    0.98248451E+02    0.10060645E+03
H     0.93867503E+02    0.98931995E+02    0.99082654E+02
O     0.95242964E+02    0.91932675E+02    0.10181340E+03
H     0.96215940E+02    0.91711884E+02    0.10214140E+03
H     0.94570751E+02    0.91528761E+02    0.10244050E+03
O     0.99316104E+02    0.94762332E+02    0.10143155E+03
H     0.98300835E+02    0.94687258E+02    0.10138856E+03
H     0.99725237E+02    0.94066851E+02    0.10205461E+03
O     0.95951443E+02    0.94961069E+02    0.10400389E+03
H     0.95554559E+02    0.94035766E+02    0.10420087E+03
H     0.96578637E+02    0.95217131E+02    0.10476948E+03
O     0.94078852E+02    0.98995236E+02    0.10218439E+03
H     0.94816474E+02    0.99678237E+02    0.10189204E+03
H     0.93145508E+02    0.99282965E+02    0.10197779E+03
O     0.98360369E+02    0.92342838E+02    0.10556539E+03
H     0.99347298E+02    0.92425901E+02    0.10564044E+03
H     0.97988910E+02    0.93219938E+02    0.10590170E+03
O     0.93866212E+02    0.10243934E+03    0.10258843E+03
H     0.93941615E+02    0.10262475E+03    0.10360120E+03
H     0.94628376E+02    0.10185798E+03    0.10226296E+03
O     0.10103729E+03    0.92801775E+02    0.10581659E+03
H     0.10133488E+03    0.93723984E+02    0.10547406E+03
H     0.10145908E+03    0.92638071E+02    0.10669988E+03
O     0.99920925E+02    0.97192166E+02    0.10262715E+03
H     0.99252615E+02    0.97896584E+02    0.10240097E+03
H     0.99772687E+02    0.96362879E+02    0.10211351E+03
O     0.98207785E+02    0.97746848E+02    0.98675283E+02
H     0.99019253E+02    0.97119940E+02    0.98759058E+02
H     0.97380913E+02    0.97156247E+02    0.98547011E+02
O     0.10007770E+03    0.95838841E+02    0.99034043E+02
H     0.99839191E+02    0.95243900E+02    0.99885337E+02
H     0.10100528E+03    0.95627472E+02    0.98679796E+02
O     0.96003617E+02    0.10099685E+03    0.96591752E+02
H     0.95946978E+02    0.10070706E+03    0.95603023E+02
H     0.96907279E+02    0.10072055E+03    0.97035367E+02
O     0.98425353E+02    0.89783641E+02    0.10079302E+03
H     0.97751139E+02    0.89089636E+02    0.10093068E+03
H     0.97966040E+02    0.90524588E+02    0.10020173E+03
O     0.10255493E+03    0.97402392E+02    0.10374503E+03
H     0.10168461E+03    0.97266247E+02    0.10321346E+03
H     0.10293203E+03    0.98276909E+02    0.10349858E+03
