          97
Time step:               15500 Sim. Time [au]      155000.00
C     0.97878963E+02    0.95201216E+02    0.11080551E+03
H     0.97616424E+02    0.94124835E+02    0.11068540E+03
H     0.98876926E+02    0.95459711E+02    0.11129741E+03
H     0.97113710E+02    0.95452814E+02    0.11158713E+03
H     0.97814496E+02    0.95715539E+02    0.10985402E+03
C     0.94586350E+02    0.94010847E+02    0.10555471E+03
O     0.93499839E+02    0.94091294E+02    0.10518300E+03
O     0.97958694E+02    0.98046053E+02    0.10838416E+03
H     0.97320345E+02    0.98587498E+02    0.10898376E+03
H     0.98909863E+02    0.98281963E+02    0.10867942E+03
O     0.98587240E+02    0.99638114E+02    0.10179327E+03
H     0.98086671E+02    0.10038121E+03    0.10126425E+03
H     0.99050343E+02    0.98988839E+02    0.10115784E+03
O     0.10160088E+03    0.96789783E+02    0.10223618E+03
H     0.10159827E+03    0.97319101E+02    0.10312324E+03
H     0.10107163E+03    0.97130866E+02    0.10144586E+03
O     0.95535253E+02    0.94162234E+02    0.97689477E+02
H     0.96228977E+02    0.93492102E+02    0.98036111E+02
H     0.95836615E+02    0.95137574E+02    0.97878401E+02
O     0.95372231E+02    0.97413825E+02    0.10064451E+03
H     0.94591555E+02    0.96698561E+02    0.10074559E+03
H     0.95923769E+02    0.97344804E+02    0.10150087E+03
O     0.96212756E+02    0.91484680E+02    0.10397242E+03
H     0.96271958E+02    0.91751799E+02    0.10297018E+03
H     0.96151785E+02    0.90511969E+02    0.10410434E+03
O     0.97414638E+02    0.94734091E+02    0.10238522E+03
H     0.97785000E+02    0.94522242E+02    0.10332392E+03
H     0.97127366E+02    0.95683307E+02    0.10236637E+03
O     0.99880300E+02    0.95292006E+02    0.10541989E+03
H     0.99387998E+02    0.94437639E+02    0.10524241E+03
H     0.99243473E+02    0.96025710E+02    0.10566194E+03
O     0.96362243E+02    0.90918374E+02    0.96810505E+02
H     0.96751441E+02    0.90643054E+02    0.95930335E+02
H     0.97000465E+02    0.91432872E+02    0.97439274E+02
O     0.10201762E+03    0.99578648E+02    0.10488802E+03
H     0.10285418E+03    0.10001284E+03    0.10443052E+03
H     0.10201740E+03    0.98614299E+02    0.10518041E+03
O     0.98754442E+02    0.96276847E+02    0.98849679E+02
H     0.99093192E+02    0.95266880E+02    0.98794271E+02
H     0.97808429E+02    0.96363494E+02    0.98542233E+02
O     0.93247127E+02    0.93511187E+02    0.96323493E+02
H     0.94229433E+02    0.93814133E+02    0.96450300E+02
H     0.93009531E+02    0.92862363E+02    0.97071403E+02
O     0.90993639E+02    0.92667311E+02    0.10077746E+03
H     0.90747134E+02    0.93686353E+02    0.10060228E+03
H     0.91897206E+02    0.92591069E+02    0.10122577E+03
O     0.92492494E+02    0.91811857E+02    0.98209895E+02
H     0.91735233E+02    0.91653393E+02    0.98905261E+02
H     0.93098471E+02    0.91011307E+02    0.98049196E+02
O     0.96396329E+02    0.92432421E+02    0.10158125E+03
H     0.95459466E+02    0.92685957E+02    0.10122525E+03
H     0.96969876E+02    0.93241148E+02    0.10178413E+03
O     0.97804969E+02    0.97685531E+02    0.10560377E+03
H     0.97733396E+02    0.97855662E+02    0.10659025E+03
H     0.98462835E+02    0.98344439E+02    0.10516389E+03
O     0.94280150E+02    0.93217276E+02    0.10013696E+03
H     0.94695196E+02    0.93783118E+02    0.99412555E+02
H     0.93612668E+02    0.92620457E+02    0.99662797E+02
O     0.98026651E+02    0.93437272E+02    0.10473148E+03
H     0.97773958E+02    0.93639775E+02    0.10565880E+03
H     0.97414070E+02    0.92669187E+02    0.10439617E+03
O     0.10049580E+03    0.94279421E+02    0.10181944E+03
H     0.99740091E+02    0.93866164E+02    0.10234710E+03
H     0.10089597E+03    0.95045911E+02    0.10231865E+03
O     0.97254607E+02    0.97404172E+02    0.10282495E+03
H     0.97264069E+02    0.97327762E+02    0.10387511E+03
H     0.97632344E+02    0.98252863E+02    0.10243532E+03
O     0.93232188E+02    0.95745760E+02    0.10072499E+03
H     0.93699805E+02    0.94863804E+02    0.10082584E+03
H     0.92298860E+02    0.95587515E+02    0.10027014E+03
O     0.99328695E+02    0.99490668E+02    0.10435237E+03
H     0.10032063E+03    0.99746178E+02    0.10451474E+03
H     0.98967487E+02    0.99644092E+02    0.10340465E+03
O     0.90530316E+02    0.95372957E+02    0.99879655E+02
H     0.89826472E+02    0.96112808E+02    0.99922312E+02
H     0.90586946E+02    0.95085415E+02    0.98898973E+02
O     0.10000471E+03    0.98081171E+02    0.10028382E+03
H     0.99615375E+02    0.97311676E+02    0.99773471E+02
H     0.10056110E+03    0.98678768E+02    0.99670264E+02
O     0.90753451E+02    0.94540406E+02    0.97415862E+02
H     0.90159463E+02    0.93807451E+02    0.96984317E+02
H     0.91576489E+02    0.94571011E+02    0.96821506E+02
O     0.97568124E+02    0.92737605E+02    0.98905982E+02
H     0.98490195E+02    0.93202368E+02    0.98852404E+02
H     0.97269640E+02    0.92559829E+02    0.99871386E+02
O     0.10001789E+03    0.93915507E+02    0.99120740E+02
H     0.10040922E+03    0.94124942E+02    0.10002959E+03
H     0.10075331E+03    0.93731883E+02    0.98423518E+02
O     0.94066474E+02    0.89708158E+02    0.97495553E+02
H     0.93980319E+02    0.88949243E+02    0.96866262E+02
H     0.94909763E+02    0.90238660E+02    0.97332303E+02
O     0.10211145E+03    0.96736106E+02    0.10502643E+03
H     0.10260429E+03    0.96294520E+02    0.10576840E+03
H     0.10118501E+03    0.96255631E+02    0.10498908E+03
O     0.96114422E+02    0.96599469E+02    0.98194663E+02
H     0.95476583E+02    0.96851681E+02    0.97425921E+02
H     0.95925884E+02    0.97092144E+02    0.99074402E+02
