          97
Time step:               36000 Sim. Time [au]      360000.00
C     0.86438287E+02    0.85567606E+02    0.99740480E+02
H     0.87120116E+02    0.85081812E+02    0.99096572E+02
H     0.85470218E+02    0.85663670E+02    0.99116802E+02
H     0.86659096E+02    0.86615863E+02    0.10010927E+03
H     0.86163501E+02    0.84810203E+02    0.10050215E+03
C     0.87546194E+02    0.86166318E+02    0.10231891E+03
O     0.88239379E+02    0.87058819E+02    0.10201770E+03
O     0.97043983E+02    0.91610970E+02    0.10342084E+03
H     0.97584411E+02    0.90906657E+02    0.10288047E+03
H     0.97697256E+02    0.92205202E+02    0.10391152E+03
O     0.98175215E+02    0.95968922E+02    0.10566715E+03
H     0.97807307E+02    0.96843389E+02    0.10602354E+03
H     0.99191587E+02    0.96068947E+02    0.10571312E+03
O     0.10019734E+03    0.92911365E+02    0.10299409E+03
H     0.10057926E+03    0.92120955E+02    0.10248944E+03
H     0.10040867E+03    0.92945185E+02    0.10400309E+03
O     0.97724237E+02    0.98704959E+02    0.10146268E+03
H     0.98121855E+02    0.98361982E+02    0.10060919E+03
H     0.96973073E+02    0.98126723E+02    0.10184491E+03
O     0.95862252E+02    0.97116883E+02    0.10267863E+03
H     0.94969195E+02    0.97512497E+02    0.10280226E+03
H     0.96035489E+02    0.96293351E+02    0.10324325E+03
O     0.97889114E+02    0.93885032E+02    0.97868869E+02
H     0.97336531E+02    0.94671257E+02    0.98239150E+02
H     0.97657779E+02    0.93765529E+02    0.96875768E+02
O     0.96529970E+02    0.94287333E+02    0.10142815E+03
H     0.96050175E+02    0.93412278E+02    0.10132393E+03
H     0.96617370E+02    0.94521204E+02    0.10243614E+03
O     0.97298962E+02    0.91446101E+02    0.99225410E+02
H     0.97710974E+02    0.92294028E+02    0.98870060E+02
H     0.96484852E+02    0.91570141E+02    0.99796995E+02
O     0.97946874E+02    0.99974114E+02    0.97869608E+02
H     0.98875046E+02    0.10033300E+03    0.97835298E+02
H     0.98086363E+02    0.99062703E+02    0.98253657E+02
O     0.10093495E+03    0.90804828E+02    0.10151511E+03
H     0.10134195E+03    0.90644773E+02    0.10062653E+03
H     0.99930116E+02    0.90640329E+02    0.10147593E+03
O     0.10112444E+03    0.96251452E+02    0.10494098E+03
H     0.10096129E+03    0.96290669E+02    0.10394113E+03
H     0.10166219E+03    0.97067271E+02    0.10530360E+03
O     0.95463962E+02    0.10045790E+03    0.10155876E+03
H     0.96280130E+02    0.99934077E+02    0.10185420E+03
H     0.95302888E+02    0.10032979E+03    0.10055383E+03
O     0.92349203E+02    0.10207070E+03    0.99562427E+02
H     0.92673423E+02    0.10191951E+03    0.10050723E+03
H     0.91914690E+02    0.10296858E+03    0.99467745E+02
O     0.94387500E+02    0.10033460E+03    0.99004358E+02
H     0.93587260E+02    0.10100393E+03    0.98968851E+02
H     0.94935850E+02    0.10028947E+03    0.98158990E+02
O     0.96426450E+02    0.95669334E+02    0.99135185E+02
H     0.95683605E+02    0.96299730E+02    0.99270959E+02
H     0.96496103E+02    0.95117940E+02    0.10000694E+03
O     0.95163811E+02    0.92394245E+02    0.10506140E+03
H     0.95076068E+02    0.91957199E+02    0.10593330E+03
H     0.95949411E+02    0.91994558E+02    0.10453900E+03
O     0.94875777E+02    0.97768946E+02    0.99905347E+02
H     0.94463329E+02    0.97562053E+02    0.10081640E+03
H     0.94514536E+02    0.98617240E+02    0.99489438E+02
O     0.95195643E+02    0.91949894E+02    0.10105557E+03
H     0.95209801E+02    0.91819639E+02    0.10208148E+03
H     0.94465539E+02    0.91399507E+02    0.10063992E+03
O     0.99222078E+02    0.94665069E+02    0.10114686E+03
H     0.98209430E+02    0.94542451E+02    0.10130702E+03
H     0.99761964E+02    0.94001497E+02    0.10172654E+03
O     0.96308565E+02    0.94861043E+02    0.10403709E+03
H     0.95771347E+02    0.94129006E+02    0.10446857E+03
H     0.96987778E+02    0.95223612E+02    0.10473447E+03
O     0.93625482E+02    0.98924727E+02    0.10308254E+03
H     0.94103121E+02    0.99515246E+02    0.10238969E+03
H     0.92840340E+02    0.99455477E+02    0.10335069E+03
O     0.98527699E+02    0.93234330E+02    0.10571686E+03
H     0.99534427E+02    0.93015076E+02    0.10570502E+03
H     0.98283984E+02    0.94212759E+02    0.10577506E+03
O     0.93438253E+02    0.10209180E+03    0.10201074E+03
H     0.93329084E+02    0.10280341E+03    0.10272721E+03
H     0.94433659E+02    0.10179086E+03    0.10180647E+03
O     0.10120335E+03    0.93561251E+02    0.10579973E+03
H     0.10103530E+03    0.94538939E+02    0.10559017E+03
H     0.10220009E+03    0.93307097E+02    0.10593122E+03
O     0.10017504E+03    0.96888110E+02    0.10242991E+03
H     0.99401227E+02    0.97518915E+02    0.10231489E+03
H     0.99970080E+02    0.96082019E+02    0.10184783E+03
O     0.98369462E+02    0.97505592E+02    0.98873604E+02
H     0.99224716E+02    0.96934790E+02    0.98966175E+02
H     0.97572448E+02    0.96905164E+02    0.99043689E+02
O     0.10046746E+03    0.95603241E+02    0.98726758E+02
H     0.10022663E+03    0.95102203E+02    0.99574044E+02
H     0.10008380E+03    0.95142306E+02    0.97871547E+02
O     0.95627052E+02    0.10033078E+03    0.96648237E+02
H     0.95800516E+02    0.10039967E+03    0.95652072E+02
H     0.96526057E+02    0.10017762E+03    0.97142578E+02
O     0.98252694E+02    0.89953952E+02    0.10137874E+03
H     0.98091554E+02    0.88996415E+02    0.10107015E+03
H     0.97953144E+02    0.90633169E+02    0.10068649E+03
O     0.10241611E+03    0.98375831E+02    0.10353218E+03
H     0.10177297E+03    0.97986510E+02    0.10283507E+03
H     0.10318978E+03    0.98824604E+02    0.10309393E+03
