          97
Time step:               10000 Sim. Time [au]      100000.00
C     0.10176306E+03    0.93837231E+02    0.10381491E+03
H     0.10170764E+03    0.93811640E+02    0.10491141E+03
H     0.10128020E+03    0.92895067E+02    0.10352794E+03
H     0.10290230E+03    0.93742943E+02    0.10353374E+03
H     0.10136719E+03    0.94680626E+02    0.10326547E+03
C     0.94659553E+02    0.94277970E+02    0.10514489E+03
O     0.93785574E+02    0.93649303E+02    0.10481669E+03
O     0.92492169E+02    0.10073710E+03    0.10411168E+03
H     0.92608623E+02    0.10148250E+03    0.10476434E+03
H     0.91792106E+02    0.10017028E+03    0.10455021E+03
O     0.97667167E+02    0.98702372E+02    0.99773748E+02
H     0.97050068E+02    0.97955550E+02    0.99455521E+02
H     0.98615104E+02    0.98546112E+02    0.99364584E+02
O     0.10074011E+03    0.97449088E+02    0.10185508E+03
H     0.10023219E+03    0.97813411E+02    0.10264019E+03
H     0.10069248E+03    0.98076015E+02    0.10101902E+03
O     0.96409567E+02    0.92554465E+02    0.98816137E+02
H     0.97171913E+02    0.92146719E+02    0.99382401E+02
H     0.96626695E+02    0.93528594E+02    0.98634387E+02
O     0.95940258E+02    0.96427043E+02    0.10071402E+03
H     0.95217005E+02    0.95750782E+02    0.10098277E+03
H     0.96276785E+02    0.96892614E+02    0.10151529E+03
O     0.98282790E+02    0.92488343E+02    0.10559636E+03
H     0.97931972E+02    0.92565997E+02    0.10466567E+03
H     0.98155345E+02    0.91575352E+02    0.10601806E+03
O     0.98293880E+02    0.95422874E+02    0.10314561E+03
H     0.98768405E+02    0.95388619E+02    0.10406704E+03
H     0.97854547E+02    0.96326125E+02    0.10309555E+03
O     0.98620545E+02    0.97858680E+02    0.10612928E+03
H     0.98848591E+02    0.96894505E+02    0.10625270E+03
H     0.97801091E+02    0.98046190E+02    0.10669020E+03
O     0.96903811E+02    0.89460913E+02    0.99742914E+02
H     0.96562359E+02    0.89844097E+02    0.98843009E+02
H     0.97629295E+02    0.90034797E+02    0.10009971E+03
O     0.99026263E+02    0.10132047E+03    0.10250139E+03
H     0.99662430E+02    0.10199033E+03    0.10290094E+03
H     0.99109697E+02    0.10037021E+03    0.10287389E+03
O     0.99411640E+02    0.96120630E+02    0.98025905E+02
H     0.99609226E+02    0.95593559E+02    0.98890882E+02
H     0.98443810E+02    0.95984808E+02    0.97817016E+02
O     0.93565537E+02    0.91341600E+02    0.98358319E+02
H     0.94348093E+02    0.91893661E+02    0.98566178E+02
H     0.93613963E+02    0.90390997E+02    0.98710906E+02
O     0.92541672E+02    0.92041014E+02    0.10230810E+03
H     0.92130074E+02    0.91211152E+02    0.10191412E+03
H     0.91857783E+02    0.92734300E+02    0.10231743E+03
O     0.93756398E+02    0.88720240E+02    0.99336791E+02
H     0.93640676E+02    0.87770973E+02    0.98930926E+02
H     0.94077870E+02    0.88674652E+02    0.10027476E+03
O     0.97579362E+02    0.92823215E+02    0.10299872E+03
H     0.96656581E+02    0.92814225E+02    0.10258315E+03
H     0.97918231E+02    0.93799980E+02    0.10298768E+03
O     0.95212149E+02    0.99720374E+02    0.10308741E+03
H     0.94192577E+02    0.99782215E+02    0.10314017E+03
H     0.95606643E+02    0.10040431E+03    0.10243667E+03
O     0.94976599E+02    0.92695325E+02    0.10176324E+03
H     0.95182875E+02    0.92507085E+02    0.10078876E+03
H     0.94027735E+02    0.92377778E+02    0.10197889E+03
O     0.99199863E+02    0.95083241E+02    0.10576299E+03
H     0.10017239E+03    0.94978125E+02    0.10608762E+03
H     0.98662611E+02    0.94235232E+02    0.10587446E+03
O     0.99678969E+02    0.95077186E+02    0.10080356E+03
H     0.99050712E+02    0.94870425E+02    0.10158225E+03
H     0.10021136E+03    0.95910631E+02    0.10109220E+03
O     0.97094087E+02    0.97900208E+02    0.10240272E+03
H     0.96309322E+02    0.98484886E+02    0.10275319E+03
H     0.97518312E+02    0.98298681E+02    0.10154002E+03
O     0.93553914E+02    0.95162422E+02    0.10162161E+03
H     0.93989352E+02    0.94362783E+02    0.10203164E+03
H     0.92545090E+02    0.95006111E+02    0.10150872E+03
O     0.96524002E+02    0.10101410E+03    0.10120252E+03
H     0.97453274E+02    0.10135894E+03    0.10158475E+03
H     0.96730487E+02    0.10039935E+03    0.10043583E+03
O     0.91060110E+02    0.94257982E+02    0.10121176E+03
H     0.90195648E+02    0.94742371E+02    0.10134726E+03
H     0.91088030E+02    0.93989089E+02    0.10021727E+03
O     0.10052950E+03    0.98532133E+02    0.99034707E+02
H     0.10027229E+03    0.97741168E+02    0.98398511E+02
H     0.10137442E+03    0.99016656E+02    0.98906492E+02
O     0.91501272E+02    0.93296751E+02    0.98761423E+02
H     0.91528388E+02    0.93876295E+02    0.97916855E+02
H     0.92191705E+02    0.92518620E+02    0.98666214E+02
O     0.98510887E+02    0.91672077E+02    0.10055265E+03
H     0.99463109E+02    0.92007219E+02    0.10036626E+03
H     0.98221958E+02    0.91938304E+02    0.10145002E+03
O     0.10112364E+03    0.92760099E+02    0.10058103E+03
H     0.10062716E+03    0.93634608E+02    0.10076707E+03
H     0.10178576E+03    0.92746777E+02    0.99831683E+02
O     0.95202771E+02    0.88637890E+02    0.10184524E+03
H     0.95594811E+02    0.89168979E+02    0.10263493E+03
H     0.95735683E+02    0.88787120E+02    0.10100265E+03
O     0.99144803E+02    0.99015671E+02    0.10380462E+03
H     0.98307610E+02    0.98735616E+02    0.10334082E+03
H     0.99046924E+02    0.98782550E+02    0.10482848E+03
O     0.96846160E+02    0.95215235E+02    0.98406968E+02
H     0.96175670E+02    0.95749609E+02    0.97887751E+02
H     0.96836745E+02    0.95547767E+02    0.99344121E+02
