          97
Time step:                8500 Sim. Time [au]       85000.00
C     0.10183552E+03    0.92693057E+02    0.10435986E+03
H     0.10080286E+03    0.92980359E+02    0.10395981E+03
H     0.10193823E+03    0.92689517E+02    0.10550228E+03
H     0.10265675E+03    0.93275023E+02    0.10385537E+03
H     0.10193800E+03    0.91672982E+02    0.10422787E+03
C     0.95154454E+02    0.96121055E+02    0.10446437E+03
O     0.94535734E+02    0.95101637E+02    0.10466216E+03
O     0.92550284E+02    0.10044518E+03    0.10298419E+03
H     0.91555448E+02    0.10027399E+03    0.10312469E+03
H     0.92592997E+02    0.10137942E+03    0.10255059E+03
O     0.97756315E+02    0.98830081E+02    0.99402896E+02
H     0.96921055E+02    0.98577779E+02    0.98912706E+02
H     0.98499580E+02    0.98852722E+02    0.98712750E+02
O     0.10073631E+03    0.98732633E+02    0.10141924E+03
H     0.10011685E+03    0.99104292E+02    0.10217414E+03
H     0.10024143E+03    0.98662044E+02    0.10054069E+03
O     0.96659522E+02    0.92106742E+02    0.98718052E+02
H     0.97271954E+02    0.92042144E+02    0.99466081E+02
H     0.96701992E+02    0.93005067E+02    0.98270796E+02
O     0.95269346E+02    0.96056538E+02    0.10002853E+03
H     0.94624981E+02    0.95424113E+02    0.10045884E+03
H     0.95879440E+02    0.96518379E+02    0.10071137E+03
O     0.98634528E+02    0.93013046E+02    0.10561444E+03
H     0.98158257E+02    0.92879852E+02    0.10468939E+03
H     0.98262655E+02    0.92331839E+02    0.10624318E+03
O     0.98305633E+02    0.95452340E+02    0.10312547E+03
H     0.98574731E+02    0.95685898E+02    0.10405898E+03
H     0.98021384E+02    0.96334882E+02    0.10263106E+03
O     0.98904874E+02    0.98233766E+02    0.10578496E+03
H     0.98833190E+02    0.97186559E+02    0.10577723E+03
H     0.98355441E+02    0.98698079E+02    0.10648952E+03
O     0.98198624E+02    0.89006409E+02    0.10154523E+03
H     0.98943851E+02    0.88437904E+02    0.10129825E+03
H     0.98284371E+02    0.89993858E+02    0.10125621E+03
O     0.97898074E+02    0.10179877E+03    0.10268347E+03
H     0.98063758E+02    0.10260017E+03    0.10328641E+03
H     0.98305788E+02    0.10094807E+03    0.10304443E+03
O     0.99061893E+02    0.95728247E+02    0.98927011E+02
H     0.99724049E+02    0.95055205E+02    0.99251691E+02
H     0.98178659E+02    0.95314772E+02    0.98620638E+02
O     0.94034091E+02    0.91504168E+02    0.99374836E+02
H     0.95065465E+02    0.91510871E+02    0.99169768E+02
H     0.93671777E+02    0.90529686E+02    0.99420385E+02
O     0.92611751E+02    0.91063246E+02    0.10382246E+03
H     0.93092517E+02    0.90221772E+02    0.10354043E+03
H     0.92190537E+02    0.91613825E+02    0.10302366E+03
O     0.93297835E+02    0.88995315E+02    0.10027602E+03
H     0.92756872E+02    0.88193859E+02    0.10040677E+03
H     0.94135397E+02    0.89041360E+02    0.10087709E+03
O     0.97532908E+02    0.92900372E+02    0.10317648E+03
H     0.96518801E+02    0.92870307E+02    0.10295937E+03
H     0.97855481E+02    0.93848413E+02    0.10318926E+03
O     0.94583205E+02    0.99048946E+02    0.10195287E+03
H     0.93848913E+02    0.99454970E+02    0.10252915E+03
H     0.95176574E+02    0.99812402E+02    0.10152092E+03
O     0.94735097E+02    0.92351625E+02    0.10212558E+03
H     0.94619172E+02    0.91729483E+02    0.10135041E+03
H     0.94222073E+02    0.92105209E+02    0.10294363E+03
O     0.99471682E+02    0.95667506E+02    0.10593150E+03
H     0.10045609E+03    0.95691034E+02    0.10599172E+03
H     0.99084313E+02    0.94731756E+02    0.10572104E+03
O     0.10064165E+03    0.95557368E+02    0.10189026E+03
H     0.99728441E+02    0.95504095E+02    0.10235778E+03
H     0.10076552E+03    0.96549631E+02    0.10167703E+03
O     0.97137318E+02    0.97619485E+02    0.10173458E+03
H     0.96156700E+02    0.97808985E+02    0.10196830E+03
H     0.97448139E+02    0.98005744E+02    0.10084051E+03
O     0.93402317E+02    0.94631548E+02    0.10122407E+03
H     0.93923358E+02    0.93831207E+02    0.10156565E+03
H     0.92475588E+02    0.94371125E+02    0.10094044E+03
O     0.96292986E+02    0.10093328E+03    0.10063981E+03
H     0.96820531E+02    0.10147219E+03    0.10128939E+03
H     0.96945875E+02    0.10026945E+03    0.10014440E+03
O     0.91399980E+02    0.92427154E+02    0.10162643E+03
H     0.90441068E+02    0.92706867E+02    0.10185387E+03
H     0.91507918E+02    0.92287772E+02    0.10063308E+03
O     0.99967288E+02    0.98494328E+02    0.97919559E+02
H     0.10018448E+03    0.97582182E+02    0.98225004E+02
H     0.10076791E+03    0.98957462E+02    0.97406435E+02
O     0.91431657E+02    0.92399244E+02    0.98891851E+02
H     0.91042189E+02    0.92530479E+02    0.97981926E+02
H     0.92325695E+02    0.91965487E+02    0.98859328E+02
O     0.98558422E+02    0.91799363E+02    0.10071790E+03
H     0.99186998E+02    0.92373035E+02    0.10017950E+03
H     0.98440801E+02    0.92166909E+02    0.10168274E+03
O     0.10045260E+03    0.93784009E+02    0.99941085E+02
H     0.10072622E+03    0.94291635E+02    0.10078274E+03
H     0.10131687E+03    0.93453498E+02    0.99498161E+02
O     0.95605104E+02    0.88964215E+02    0.10196375E+03
H     0.95516254E+02    0.88909428E+02    0.10293678E+03
H     0.96575437E+02    0.88887685E+02    0.10169143E+03
O     0.98673132E+02    0.99353513E+02    0.10323329E+03
H     0.97992911E+02    0.98682854E+02    0.10285024E+03
H     0.98849275E+02    0.99142267E+02    0.10421325E+03
O     0.96597970E+02    0.94789064E+02    0.98044351E+02
H     0.96339155E+02    0.95008130E+02    0.97097049E+02
H     0.96090689E+02    0.95319344E+02    0.98761533E+02
