          97
Time step:               39500 Sim. Time [au]      395000.00
C     0.86765302E+02    0.82831585E+02    0.10036394E+03
H     0.87720890E+02    0.83397540E+02    0.10026393E+03
H     0.86323562E+02    0.83162782E+02    0.10134492E+03
H     0.86935518E+02    0.81750990E+02    0.10049693E+03
H     0.86279308E+02    0.83021070E+02    0.99440545E+02
C     0.85890514E+02    0.84946764E+02    0.10020536E+03
O     0.85308245E+02    0.85954818E+02    0.10030315E+03
O     0.96733004E+02    0.90518922E+02    0.10284810E+03
H     0.96881484E+02    0.89974719E+02    0.10200588E+03
H     0.97666457E+02    0.90762973E+02    0.10329435E+03
O     0.97862199E+02    0.93104667E+02    0.10641701E+03
H     0.98305203E+02    0.92770166E+02    0.10729150E+03
H     0.98383982E+02    0.93772718E+02    0.10587984E+03
O     0.10043806E+03    0.92447590E+02    0.10184043E+03
H     0.10053863E+03    0.91730402E+02    0.10110340E+03
H     0.10098375E+03    0.92241221E+02    0.10267684E+03
O     0.97428482E+02    0.99559688E+02    0.10149822E+03
H     0.97860466E+02    0.99447263E+02    0.10055693E+03
H     0.96676164E+02    0.98867712E+02    0.10160777E+03
O     0.95750850E+02    0.97031495E+02    0.10292278E+03
H     0.95195405E+02    0.97854794E+02    0.10320893E+03
H     0.95886732E+02    0.96319946E+02    0.10367055E+03
O     0.97989810E+02    0.94537434E+02    0.98019062E+02
H     0.97242457E+02    0.95163525E+02    0.97751977E+02
H     0.98797180E+02    0.95025394E+02    0.98483519E+02
O     0.96647590E+02    0.95000386E+02    0.10108833E+03
H     0.96266482E+02    0.94068869E+02    0.10118277E+03
H     0.96202306E+02    0.95643336E+02    0.10175168E+03
O     0.96936817E+02    0.92303707E+02    0.99011605E+02
H     0.97346172E+02    0.93060550E+02    0.98446013E+02
H     0.96415135E+02    0.92722016E+02    0.99770147E+02
O     0.99320672E+02    0.10066897E+03    0.98487791E+02
H     0.10026435E+03    0.10065846E+03    0.98831750E+02
H     0.98870347E+02    0.99805824E+02    0.98681346E+02
O     0.10035132E+03    0.89633031E+02    0.10019277E+03
H     0.10064430E+03    0.89138461E+02    0.99372921E+02
H     0.99319507E+02    0.89721324E+02    0.10027652E+03
O     0.99943757E+02    0.94555222E+02    0.10489718E+03
H     0.99782577E+02    0.94700390E+02    0.10390694E+03
H     0.10021345E+03    0.95457772E+02    0.10533051E+03
O     0.96011724E+02    0.10173312E+03    0.10178021E+03
H     0.96743325E+02    0.10098631E+03    0.10170343E+03
H     0.95338109E+02    0.10161115E+03    0.10100050E+03
O     0.93803032E+02    0.10369572E+03    0.10013733E+03
H     0.94755497E+02    0.10399771E+03    0.10018461E+03
H     0.93147862E+02    0.10441456E+03    0.10035747E+03
O     0.94686178E+02    0.10124469E+03    0.99439755E+02
H     0.94245779E+02    0.10213467E+03    0.99576422E+02
H     0.95507372E+02    0.10144390E+03    0.98834241E+02
O     0.96193439E+02    0.96892487E+02    0.99079918E+02
H     0.95363273E+02    0.97422931E+02    0.99419824E+02
H     0.96204597E+02    0.96011140E+02    0.99514846E+02
O     0.95830431E+02    0.92372734E+02    0.10470144E+03
H     0.96613478E+02    0.92535859E+02    0.10528768E+03
H     0.95893725E+02    0.91512837E+02    0.10419119E+03
O     0.94585541E+02    0.98627161E+02    0.10060464E+03
H     0.94465351E+02    0.98996766E+02    0.10153899E+03
H     0.94350040E+02    0.99402993E+02    0.99971480E+02
O     0.95406600E+02    0.92647240E+02    0.10152049E+03
H     0.95931713E+02    0.91871054E+02    0.10193045E+03
H     0.94686631E+02    0.92961074E+02    0.10214321E+03
O     0.99219021E+02    0.94794052E+02    0.10192593E+03
H     0.98280103E+02    0.94613747E+02    0.10153876E+03
H     0.99761011E+02    0.93920146E+02    0.10196148E+03
O     0.95889325E+02    0.95195453E+02    0.10485831E+03
H     0.95735777E+02    0.94187027E+02    0.10477606E+03
H     0.95778220E+02    0.95430756E+02    0.10586037E+03
O     0.94836212E+02    0.99827385E+02    0.10341010E+03
H     0.95556036E+02    0.10045938E+03    0.10298199E+03
H     0.94070075E+02    0.10029175E+03    0.10382192E+03
O     0.98777273E+02    0.91099777E+02    0.10452574E+03
H     0.99714145E+02    0.91466887E+02    0.10442331E+03
H     0.98314701E+02    0.91659575E+02    0.10523839E+03
O     0.96436753E+02    0.10426172E+03    0.10065907E+03
H     0.97338403E+02    0.10432341E+03    0.10023489E+03
H     0.96360565E+02    0.10337738E+03    0.10112903E+03
O     0.10135569E+03    0.92447151E+02    0.10439584E+03
H     0.10074226E+03    0.93262477E+02    0.10451670E+03
H     0.10231022E+03    0.92564401E+02    0.10473988E+03
O     0.99083321E+02    0.97589677E+02    0.10291271E+03
H     0.98516275E+02    0.98385961E+02    0.10257569E+03
H     0.98996892E+02    0.96751589E+02    0.10237718E+03
O     0.98544428E+02    0.98163697E+02    0.99379963E+02
H     0.99231066E+02    0.97424983E+02    0.99547592E+02
H     0.97658430E+02    0.97716189E+02    0.99179193E+02
O     0.99928355E+02    0.95795880E+02    0.99601402E+02
H     0.99739742E+02    0.95454442E+02    0.10053180E+03
H     0.10095343E+03    0.95880889E+02    0.99422885E+02
O     0.96915050E+02    0.10183684E+03    0.98094617E+02
H     0.96827447E+02    0.10183778E+03    0.97076609E+02
H     0.97816301E+02    0.10148851E+03    0.98424532E+02
O     0.97557816E+02    0.89859747E+02    0.99926099E+02
H     0.97292989E+02    0.89128154E+02    0.99321563E+02
H     0.97497088E+02    0.90815665E+02    0.99537229E+02
O     0.10073153E+03    0.97192126E+02    0.10533603E+03
H     0.10046590E+03    0.97500574E+02    0.10437853E+03
H     0.10101777E+03    0.97932241E+02    0.10591111E+03
