          97
Time step:               21000 Sim. Time [au]      210000.00
C     0.89137797E+02    0.95376272E+02    0.10369940E+03
H     0.88806961E+02    0.96469590E+02    0.10355351E+03
H     0.89039539E+02    0.95115893E+02    0.10479014E+03
H     0.90030826E+02    0.95232092E+02    0.10318648E+03
H     0.88464067E+02    0.94634146E+02    0.10309559E+03
C     0.94257392E+02    0.94187244E+02    0.10483779E+03
O     0.95066518E+02    0.93368700E+02    0.10499438E+03
O     0.99636219E+02    0.92107142E+02    0.10642208E+03
H     0.99998341E+02    0.91626023E+02    0.10724058E+03
H     0.10031541E+03    0.92831712E+02    0.10618658E+03
O     0.99425441E+02    0.98426645E+02    0.10418160E+03
H     0.99136469E+02    0.99355318E+02    0.10439792E+03
H     0.99910118E+02    0.98350512E+02    0.10328242E+03
O     0.10177853E+03    0.95773053E+02    0.10276099E+03
H     0.10189790E+03    0.96083868E+02    0.10371034E+03
H     0.10148638E+03    0.96602140E+02    0.10225251E+03
O     0.95310187E+02    0.96210940E+02    0.97740322E+02
H     0.95578908E+02    0.95212439E+02    0.97885390E+02
H     0.95738712E+02    0.96798353E+02    0.98493702E+02
O     0.95335132E+02    0.96550991E+02    0.10189142E+03
H     0.94824172E+02    0.97288988E+02    0.10236513E+03
H     0.95927106E+02    0.96066328E+02    0.10260267E+03
O     0.97467844E+02    0.90623533E+02    0.10201404E+03
H     0.96845290E+02    0.91287851E+02    0.10154960E+03
H     0.97047260E+02    0.89705223E+02    0.10184557E+03
O     0.97549693E+02    0.94202014E+02    0.10290664E+03
H     0.98095366E+02    0.93412803E+02    0.10327788E+03
H     0.97431961E+02    0.95039217E+02    0.10352545E+03
O     0.10134284E+03    0.93198735E+02    0.10419823E+03
H     0.10057272E+03    0.92620438E+02    0.10388989E+03
H     0.10140489E+03    0.94139479E+02    0.10371491E+03
O     0.95121991E+02    0.92715378E+02    0.95872646E+02
H     0.95780474E+02    0.92872770E+02    0.95098270E+02
H     0.95512889E+02    0.93085908E+02    0.96731322E+02
O     0.10327777E+03    0.96537748E+02    0.10555058E+03
H     0.10373121E+03    0.96819754E+02    0.10642304E+03
H     0.10372242E+03    0.95728644E+02    0.10512102E+03
O     0.98840040E+02    0.97531640E+02    0.10006233E+03
H     0.98859989E+02    0.96529823E+02    0.10022893E+03
H     0.97855478E+02    0.97862632E+02    0.99971295E+02
O     0.92516072E+02    0.96505906E+02    0.97712879E+02
H     0.93479079E+02    0.96403700E+02    0.97449964E+02
H     0.92232805E+02    0.95588898E+02    0.98066701E+02
O     0.89495876E+02    0.94933291E+02    0.99671530E+02
H     0.89951839E+02    0.95744760E+02    0.99348222E+02
H     0.88620836E+02    0.95185367E+02    0.10019239E+03
O     0.92069632E+02    0.94041438E+02    0.98626864E+02
H     0.91140269E+02    0.94161004E+02    0.99022945E+02
H     0.92218905E+02    0.93111910E+02    0.98234376E+02
O     0.95985643E+02    0.92784869E+02    0.10103152E+03
H     0.95055560E+02    0.93137720E+02    0.10105784E+03
H     0.96470770E+02    0.93361621E+02    0.10172331E+03
O     0.98429476E+02    0.94869684E+02    0.10598401E+03
H     0.98523535E+02    0.93848701E+02    0.10615440E+03
H     0.99297366E+02    0.95405780E+02    0.10606658E+03
O     0.93460047E+02    0.94125314E+02    0.10099649E+03
H     0.93954751E+02    0.95059256E+02    0.10104328E+03
H     0.92722366E+02    0.94209192E+02    0.10033250E+03
O     0.99014758E+02    0.91838747E+02    0.10378958E+03
H     0.99007353E+02    0.91598233E+02    0.10475464E+03
H     0.98515726E+02    0.91183037E+02    0.10314668E+03
O     0.99324899E+02    0.94697185E+02    0.10065935E+03
H     0.98774566E+02    0.94664657E+02    0.10150302E+03
H     0.10033647E+03    0.94566235E+02    0.10093611E+03
O     0.97081424E+02    0.96496148E+02    0.10432566E+03
H     0.97403737E+02    0.95987923E+02    0.10513183E+03
H     0.97475721E+02    0.97415024E+02    0.10426631E+03
O     0.93597446E+02    0.98212856E+02    0.10303678E+03
H     0.93229698E+02    0.99149913E+02    0.10290496E+03
H     0.92896223E+02    0.97468981E+02    0.10298977E+03
O     0.10058137E+03    0.96595598E+02    0.10618372E+03
H     0.10158211E+03    0.96575457E+02    0.10615531E+03
H     0.10012587E+03    0.97288992E+02    0.10556257E+03
O     0.90091781E+02    0.97276657E+02    0.98371926E+02
H     0.89521291E+02    0.97013457E+02    0.97570514E+02
H     0.91047074E+02    0.97333439E+02    0.98108923E+02
O     0.10071480E+03    0.98255996E+02    0.10183286E+03
H     0.10006714E+03    0.97965638E+02    0.10113680E+03
H     0.10125382E+03    0.99067897E+02    0.10155814E+03
O     0.93675819E+02    0.98805301E+02    0.98868150E+02
H     0.93334728E+02    0.97973267E+02    0.98353113E+02
H     0.93079805E+02    0.99575480E+02    0.98617767E+02
O     0.96519056E+02    0.93760874E+02    0.98392248E+02
H     0.97446055E+02    0.94159704E+02    0.98250894E+02
H     0.96354184E+02    0.93276731E+02    0.99259743E+02
O     0.99649710E+02    0.94436605E+02    0.97745686E+02
H     0.99655211E+02    0.94428857E+02    0.98757071E+02
H     0.99775518E+02    0.95409972E+02    0.97438121E+02
O     0.92798646E+02    0.91869598E+02    0.97360166E+02
H     0.92549312E+02    0.91001319E+02    0.96946761E+02
H     0.93512694E+02    0.92333270E+02    0.96792117E+02
O     0.10429906E+03    0.94126911E+02    0.10445245E+03
H     0.10468589E+03    0.93756273E+02    0.10358733E+03
H     0.10348714E+03    0.93667385E+02    0.10473602E+03
O     0.96225434E+02    0.98067925E+02    0.99779426E+02
H     0.95412420E+02    0.98519206E+02    0.99355309E+02
H     0.95953665E+02    0.97432657E+02    0.10054039E+03
