          97
Time step:               31000 Sim. Time [au]      310000.00
C     0.88030072E+02    0.90601244E+02    0.10146933E+03
H     0.87487070E+02    0.91346288E+02    0.10090648E+03
H     0.88927752E+02    0.90992847E+02    0.10195483E+03
H     0.88305386E+02    0.89644721E+02    0.10090609E+03
H     0.87262598E+02    0.90186646E+02    0.10217566E+03
C     0.90558225E+02    0.88188654E+02    0.10273159E+03
O     0.90595198E+02    0.87887328E+02    0.10384478E+03
O     0.98095302E+02    0.89652480E+02    0.10393821E+03
H     0.98928750E+02    0.89632990E+02    0.10342460E+03
H     0.98330359E+02    0.89581469E+02    0.10497095E+03
O     0.98979196E+02    0.95347049E+02    0.10623250E+03
H     0.98492042E+02    0.96066478E+02    0.10674985E+03
H     0.99803060E+02    0.95703027E+02    0.10580181E+03
O     0.10152320E+03    0.94319494E+02    0.10350879E+03
H     0.10142291E+03    0.93389321E+02    0.10381087E+03
H     0.10130893E+03    0.95061969E+02    0.10418871E+03
O     0.97782774E+02    0.99499513E+02    0.99749455E+02
H     0.97907215E+02    0.98619830E+02    0.99243040E+02
H     0.98277615E+02    0.99594910E+02    0.10063790E+03
O     0.96342642E+02    0.96979437E+02    0.10278170E+03
H     0.95532405E+02    0.97613941E+02    0.10286289E+03
H     0.96382249E+02    0.96309828E+02    0.10353983E+03
O     0.97343018E+02    0.92372434E+02    0.97910558E+02
H     0.96927443E+02    0.93084414E+02    0.98546281E+02
H     0.98076189E+02    0.92831196E+02    0.97333177E+02
O     0.97084966E+02    0.93979780E+02    0.10195692E+03
H     0.96742237E+02    0.93084972E+02    0.10217818E+03
H     0.96682202E+02    0.94708125E+02    0.10254898E+03
O     0.98654606E+02    0.91582849E+02    0.10023437E+03
H     0.98334637E+02    0.91629789E+02    0.99260311E+02
H     0.98958310E+02    0.92490840E+02    0.10058758E+03
O     0.95973505E+02    0.96456953E+02    0.96682363E+02
H     0.96395346E+02    0.96183353E+02    0.95823077E+02
H     0.96529390E+02    0.96190384E+02    0.97472205E+02
O     0.10084712E+03    0.91639780E+02    0.10417809E+03
H     0.10142579E+03    0.91064943E+02    0.10479223E+03
H     0.10058567E+03    0.91104252E+02    0.10336831E+03
O     0.99876417E+02    0.97119334E+02    0.10243411E+03
H     0.99709385E+02    0.96806944E+02    0.10149075E+03
H     0.99367330E+02    0.98009948E+02    0.10247080E+03
O     0.95005843E+02    0.99966012E+02    0.99753328E+02
H     0.95979575E+02    0.99675739E+02    0.99771311E+02
H     0.94365370E+02    0.99180159E+02    0.99580339E+02
O     0.91484671E+02    0.10059279E+03    0.98825227E+02
H     0.92230924E+02    0.10126863E+03    0.98871989E+02
H     0.90608540E+02    0.10104270E+03    0.98558346E+02
O     0.92754760E+02    0.98337257E+02    0.99582911E+02
H     0.92201987E+02    0.99186359E+02    0.99417309E+02
H     0.92758707E+02    0.97675231E+02    0.98843048E+02
O     0.96370184E+02    0.94630172E+02    0.99469361E+02
H     0.95608425E+02    0.95272383E+02    0.99733387E+02
H     0.96608220E+02    0.94123814E+02    0.10032412E+03
O     0.95956584E+02    0.92335610E+02    0.10453386E+03
H     0.95549426E+02    0.91934108E+02    0.10366676E+03
H     0.96712231E+02    0.91790975E+02    0.10485406E+03
O     0.94882214E+02    0.96599776E+02    0.10044126E+03
H     0.95379406E+02    0.96798310E+02    0.10129800E+03
H     0.94177681E+02    0.97284341E+02    0.10015619E+03
O     0.96774610E+02    0.91297690E+02    0.10207841E+03
H     0.97198905E+02    0.90498819E+02    0.10258066E+03
H     0.97234284E+02    0.91467728E+02    0.10118495E+03
O     0.99767402E+02    0.93759903E+02    0.10143075E+03
H     0.98812328E+02    0.93823673E+02    0.10186538E+03
H     0.10055686E+03    0.94146404E+02    0.10191346E+03
O     0.96559375E+02    0.94968007E+02    0.10474838E+03
H     0.96132066E+02    0.94068706E+02    0.10486504E+03
H     0.97292709E+02    0.95067861E+02    0.10546714E+03
O     0.94707832E+02    0.99116619E+02    0.10251318E+03
H     0.94803407E+02    0.99610192E+02    0.10164416E+03
H     0.93889051E+02    0.99426729E+02    0.10303089E+03
O     0.98936261E+02    0.92174825E+02    0.10597011E+03
H     0.99626383E+02    0.92042955E+02    0.10517683E+03
H     0.98804836E+02    0.93186887E+02    0.10618437E+03
O     0.93710244E+02    0.10241471E+03    0.98709359E+02
H     0.94111566E+02    0.10332117E+03    0.99011311E+02
H     0.94235912E+02    0.10166264E+03    0.98992968E+02
O     0.10093829E+03    0.96621852E+02    0.10484993E+03
H     0.10061482E+03    0.96635965E+02    0.10385617E+03
H     0.10124653E+03    0.97529713E+02    0.10509804E+03
O     0.96689856E+02    0.10185131E+03    0.10205765E+03
H     0.96685814E+02    0.10206453E+03    0.10107028E+03
H     0.97086693E+02    0.10266107E+03    0.10255272E+03
O     0.98089356E+02    0.96827132E+02    0.98871828E+02
H     0.99055596E+02    0.96469881E+02    0.98859898E+02
H     0.97474648E+02    0.96273377E+02    0.99420506E+02
O     0.10028629E+03    0.95098601E+02    0.99125737E+02
H     0.10011573E+03    0.94500058E+02    0.99938180E+02
H     0.10116135E+03    0.94835783E+02    0.98748701E+02
O     0.93413274E+02    0.96405351E+02    0.97841282E+02
H     0.93432030E+02    0.95701061E+02    0.98555619E+02
H     0.94294832E+02    0.96445940E+02    0.97338223E+02
O     0.10015227E+03    0.90182428E+02    0.10212473E+03
H     0.10071612E+03    0.89436800E+02    0.10183548E+03
H     0.99522003E+02    0.90652344E+02    0.10146687E+03
O     0.97999213E+02    0.99411698E+02    0.10255897E+03
H     0.97465911E+02    0.10029264E+03    0.10250417E+03
H     0.97370124E+02    0.98628565E+02    0.10263019E+03
