          97
Time step:               25500 Sim. Time [au]      255000.00
C     0.92685949E+02    0.92229799E+02    0.10753095E+03
H     0.91655236E+02    0.92169378E+02    0.10706658E+03
H     0.93183312E+02    0.91302243E+02    0.10783559E+03
H     0.92620358E+02    0.92870386E+02    0.10843809E+03
H     0.93244115E+02    0.92738580E+02    0.10675335E+03
C     0.93600460E+02    0.92956470E+02    0.10302251E+03
O     0.93470133E+02    0.92274348E+02    0.10213127E+03
O     0.98615624E+02    0.90445605E+02    0.10510979E+03
H     0.98706177E+02    0.91038055E+02    0.10596195E+03
H     0.99499238E+02    0.90013656E+02    0.10502119E+03
O     0.99497550E+02    0.97098953E+02    0.10554327E+03
H     0.99475733E+02    0.97810325E+02    0.10630328E+03
H     0.10009292E+03    0.97412035E+02    0.10479026E+03
O     0.10156458E+03    0.95097560E+02    0.10282625E+03
H     0.10179020E+03    0.94292030E+02    0.10341296E+03
H     0.10105631E+03    0.95880881E+02    0.10320391E+03
O     0.96008336E+02    0.97690743E+02    0.98846087E+02
H     0.96478570E+02    0.96886424E+02    0.98410372E+02
H     0.96300189E+02    0.97871173E+02    0.99810685E+02
O     0.94716666E+02    0.96818207E+02    0.10326936E+03
H     0.94008107E+02    0.96589576E+02    0.10392983E+03
H     0.95654335E+02    0.96799149E+02    0.10371342E+03
O     0.96447103E+02    0.91148733E+02    0.10076260E+03
H     0.96165599E+02    0.92168554E+02    0.10062659E+03
H     0.96553194E+02    0.90578863E+02    0.99930677E+02
O     0.97740188E+02    0.94461399E+02    0.10205255E+03
H     0.97478356E+02    0.93566982E+02    0.10251600E+03
H     0.97640449E+02    0.95208622E+02    0.10270290E+03
O     0.10037077E+03    0.92170727E+02    0.10229263E+03
H     0.99360755E+02    0.91965740E+02    0.10245223E+03
H     0.10045873E+03    0.93048778E+02    0.10180613E+03
O     0.94916127E+02    0.94769854E+02    0.95834393E+02
H     0.94987515E+02    0.95299686E+02    0.94970702E+02
H     0.95720440E+02    0.94855819E+02    0.96474754E+02
O     0.10221283E+03    0.93514894E+02    0.10497220E+03
H     0.10319067E+03    0.93729778E+02    0.10522118E+03
H     0.10204598E+03    0.92485703E+02    0.10499728E+03
O     0.98911793E+02    0.97412788E+02    0.10128708E+03
H     0.98865504E+02    0.96617646E+02    0.10063537E+03
H     0.98003157E+02    0.97858870E+02    0.10134893E+03
O     0.93657623E+02    0.98920257E+02    0.99017936E+02
H     0.94535183E+02    0.98428797E+02    0.98897125E+02
H     0.92903810E+02    0.98230009E+02    0.98956113E+02
O     0.90808857E+02    0.97654162E+02    0.96744954E+02
H     0.91655144E+02    0.97829146E+02    0.96147297E+02
H     0.89990859E+02    0.98080827E+02    0.96378267E+02
O     0.92236803E+02    0.96417005E+02    0.98695282E+02
H     0.91601727E+02    0.96979179E+02    0.98144857E+02
H     0.92329138E+02    0.95516841E+02    0.98262167E+02
O     0.95924971E+02    0.93701868E+02    0.10023602E+03
H     0.95226802E+02    0.94434710E+02    0.10029298E+03
H     0.96684690E+02    0.93861286E+02    0.10097707E+03
O     0.97019633E+02    0.93726071E+02    0.10541855E+03
H     0.96824251E+02    0.93125795E+02    0.10462510E+03
H     0.97972882E+02    0.93818394E+02    0.10548895E+03
O     0.94441013E+02    0.95703361E+02    0.10059158E+03
H     0.94289542E+02    0.95993677E+02    0.10154750E+03
H     0.93660994E+02    0.96052193E+02    0.10002321E+03
O     0.97335376E+02    0.91955237E+02    0.10305435E+03
H     0.97783688E+02    0.91378479E+02    0.10378240E+03
H     0.97022845E+02    0.91421162E+02    0.10224107E+03
O     0.10038917E+03    0.94319243E+02    0.10057125E+03
H     0.99404603E+02    0.94345633E+02    0.10080007E+03
H     0.10100051E+03    0.94707512E+02    0.10130805E+03
O     0.97222946E+02    0.96306274E+02    0.10432898E+03
H     0.96979259E+02    0.95392880E+02    0.10480168E+03
H     0.98024183E+02    0.96659384E+02    0.10482894E+03
O     0.93075298E+02    0.95573059E+02    0.10561724E+03
H     0.93964386E+02    0.95367121E+02    0.10603638E+03
H     0.92321966E+02    0.94939324E+02    0.10588228E+03
O     0.99584760E+02    0.94355683E+02    0.10529971E+03
H     0.10053219E+03    0.94054986E+02    0.10519879E+03
H     0.99541770E+02    0.95372274E+02    0.10534127E+03
O     0.93184520E+02    0.99238848E+02    0.95964116E+02
H     0.94136911E+02    0.99148698E+02    0.95601529E+02
H     0.93127822E+02    0.99417437E+02    0.96959267E+02
O     0.10096510E+03    0.97768684E+02    0.10319049E+03
H     0.10012788E+03    0.97701559E+02    0.10256635E+03
H     0.10184067E+03    0.97690378E+02    0.10268583E+03
O     0.94923564E+02    0.10078363E+03    0.10051260E+03
H     0.94544334E+02    0.10167648E+03    0.10018458E+03
H     0.94619998E+02    0.99976730E+02    0.99972116E+02
O     0.96864679E+02    0.95202384E+02    0.97926277E+02
H     0.97889764E+02    0.95336394E+02    0.98064200E+02
H     0.96409129E+02    0.94703375E+02    0.98709465E+02
O     0.99226053E+02    0.95891830E+02    0.98584524E+02
H     0.99808897E+02    0.95199207E+02    0.99038461E+02
H     0.99840111E+02    0.96664360E+02    0.98354439E+02
O     0.93036869E+02    0.94061216E+02    0.97613726E+02
H     0.93438202E+02    0.93642906E+02    0.98476201E+02
H     0.93775151E+02    0.94149080E+02    0.96897921E+02
O     0.10151163E+03    0.90840656E+02    0.10440440E+03
H     0.10180210E+03    0.89984272E+02    0.10390665E+03
H     0.10122549E+03    0.91528821E+02    0.10369374E+03
O     0.96258673E+02    0.98541762E+02    0.10137136E+03
H     0.95980935E+02    0.99498450E+02    0.10107482E+03
H     0.95579146E+02    0.98120359E+02    0.10197561E+03
