          97
Time step:               29500 Sim. Time [au]      295000.00
C     0.89534282E+02    0.88724453E+02    0.10092787E+03
H     0.88445638E+02    0.88778846E+02    0.10129557E+03
H     0.89745209E+02    0.89632352E+02    0.10022636E+03
H     0.89630202E+02    0.87863309E+02    0.10023140E+03
H     0.90227689E+02    0.88788780E+02    0.10171286E+03
C     0.90429957E+02    0.90287938E+02    0.10443993E+03
O     0.91504888E+02    0.90695053E+02    0.10430765E+03
O     0.98072888E+02    0.89914588E+02    0.10417931E+03
H     0.99098384E+02    0.89864934E+02    0.10396237E+03
H     0.98031910E+02    0.90056484E+02    0.10515238E+03
O     0.98812584E+02    0.95551733E+02    0.10588354E+03
H     0.98654943E+02    0.96000106E+02    0.10677640E+03
H     0.99456952E+02    0.96070443E+02    0.10525626E+03
O     0.10170432E+03    0.94001691E+02    0.10347186E+03
H     0.10168694E+03    0.93395519E+02    0.10429711E+03
H     0.10125840E+03    0.94838162E+02    0.10374561E+03
O     0.97091056E+02    0.98456974E+02    0.99020325E+02
H     0.97514035E+02    0.97664591E+02    0.98535172E+02
H     0.97225488E+02    0.98294930E+02    0.99994983E+02
O     0.95630573E+02    0.97791676E+02    0.10339821E+03
H     0.94788228E+02    0.98349524E+02    0.10362969E+03
H     0.95679895E+02    0.97001562E+02    0.10402840E+03
O     0.97190791E+02    0.92409584E+02    0.98742182E+02
H     0.96844381E+02    0.93112505E+02    0.99355069E+02
H     0.97053292E+02    0.92613683E+02    0.97775793E+02
O     0.97828324E+02    0.94103273E+02    0.10245163E+03
H     0.97386205E+02    0.93146371E+02    0.10247574E+03
H     0.97414399E+02    0.94751119E+02    0.10311876E+03
O     0.99401159E+02    0.91471520E+02    0.10043065E+03
H     0.98665813E+02    0.91699100E+02    0.99737151E+02
H     0.99867555E+02    0.92320188E+02    0.10073553E+03
O     0.96082460E+02    0.95670007E+02    0.96178478E+02
H     0.96425087E+02    0.94997523E+02    0.95511831E+02
H     0.96845838E+02    0.96207741E+02    0.96603107E+02
O     0.10110431E+03    0.91444739E+02    0.10497840E+03
H     0.10186191E+03    0.90962582E+02    0.10540692E+03
H     0.10091970E+03    0.91156083E+02    0.10399831E+03
O     0.99845083E+02    0.97540411E+02    0.10176130E+03
H     0.10015630E+03    0.97294200E+02    0.10082080E+03
H     0.98975184E+02    0.98068345E+02    0.10171728E+03
O     0.94832708E+02    0.99832396E+02    0.98731226E+02
H     0.95754397E+02    0.99351694E+02    0.98638001E+02
H     0.94133070E+02    0.99165120E+02    0.99001266E+02
O     0.90887821E+02    0.99860074E+02    0.99235153E+02
H     0.91353571E+02    0.10048546E+03    0.98585396E+02
H     0.89920633E+02    0.10008741E+03    0.99321249E+02
O     0.92893581E+02    0.97979980E+02    0.99524045E+02
H     0.92039946E+02    0.98508240E+02    0.99551873E+02
H     0.92932076E+02    0.97227099E+02    0.98841680E+02
O     0.96810343E+02    0.95038036E+02    0.99992278E+02
H     0.96036945E+02    0.95682705E+02    0.10014308E+03
H     0.97125645E+02    0.94811430E+02    0.10093849E+03
O     0.96066854E+02    0.92696215E+02    0.10519924E+03
H     0.95586382E+02    0.92097057E+02    0.10456576E+03
H     0.97122975E+02    0.92626250E+02    0.10516053E+03
O     0.95009149E+02    0.96794084E+02    0.10090991E+03
H     0.95184651E+02    0.97024409E+02    0.10188279E+03
H     0.94290859E+02    0.97356125E+02    0.10046269E+03
O     0.96953094E+02    0.91498049E+02    0.10226436E+03
H     0.97332227E+02    0.90897939E+02    0.10298921E+03
H     0.97407894E+02    0.91181857E+02    0.10138108E+03
O     0.10029152E+03    0.94179574E+02    0.10119024E+03
H     0.99394279E+02    0.94331205E+02    0.10156124E+03
H     0.10105735E+03    0.93979499E+02    0.10185460E+03
O     0.96170668E+02    0.95299334E+02    0.10459711E+03
H     0.95630055E+02    0.94496749E+02    0.10485931E+03
H     0.96882054E+02    0.95432873E+02    0.10526968E+03
O     0.93320566E+02    0.99138214E+02    0.10414260E+03
H     0.92442001E+02    0.98604205E+02    0.10402276E+03
H     0.93184353E+02    0.99894408E+02    0.10482566E+03
O     0.98604421E+02    0.92557899E+02    0.10540596E+03
H     0.99390436E+02    0.91910289E+02    0.10544646E+03
H     0.98777314E+02    0.93518586E+02    0.10566046E+03
O     0.92704597E+02    0.10130065E+03    0.97743403E+02
H     0.92785836E+02    0.10208797E+03    0.97186007E+02
H     0.93582235E+02    0.10074008E+03    0.97731754E+02
O     0.10093401E+03    0.96823875E+02    0.10420991E+03
H     0.10033034E+03    0.97112801E+02    0.10345980E+03
H     0.10186863E+03    0.97273773E+02    0.10420368E+03
O     0.95990126E+02    0.10110157E+03    0.10102309E+03
H     0.95697752E+02    0.10087840E+03    0.10005977E+03
H     0.95238472E+02    0.10120617E+03    0.10170431E+03
O     0.98150560E+02    0.96210848E+02    0.97892219E+02
H     0.99124224E+02    0.96221209E+02    0.98062895E+02
H     0.97597416E+02    0.95782628E+02    0.98662182E+02
O     0.10084494E+03    0.95863244E+02    0.99081596E+02
H     0.10060315E+03    0.95064017E+02    0.99617833E+02
H     0.10184830E+03    0.95984875E+02    0.99160135E+02
O     0.93942988E+02    0.95766749E+02    0.98255791E+02
H     0.94491683E+02    0.95660206E+02    0.99080375E+02
H     0.94499336E+02    0.95587567E+02    0.97436351E+02
O     0.10055645E+03    0.89908480E+02    0.10264249E+03
H     0.10076612E+03    0.88981615E+02    0.10223351E+03
H     0.10020010E+03    0.90472996E+02    0.10187131E+03
O     0.97453016E+02    0.98771280E+02    0.10167113E+03
H     0.97003362E+02    0.99599101E+02    0.10135971E+03
H     0.96912071E+02    0.98383526E+02    0.10248417E+03
