          97
Time step:               37500 Sim. Time [au]      375000.00
C     0.86340309E+02    0.87475838E+02    0.10101503E+03
H     0.86426019E+02    0.87757998E+02    0.10210609E+03
H     0.85500270E+02    0.86748627E+02    0.10106541E+03
H     0.87283386E+02    0.87109074E+02    0.10062284E+03
H     0.86066558E+02    0.88305935E+02    0.10033187E+03
C     0.86587584E+02    0.84864534E+02    0.10091044E+03
O     0.87407940E+02    0.84085069E+02    0.10065432E+03
O     0.97078857E+02    0.90815583E+02    0.10321820E+03
H     0.97642773E+02    0.90482994E+02    0.10242656E+03
H     0.97621316E+02    0.91297221E+02    0.10394074E+03
O     0.97951311E+02    0.94684193E+02    0.10623572E+03
H     0.97804068E+02    0.94754368E+02    0.10723897E+03
H     0.98782983E+02    0.95085593E+02    0.10579859E+03
O     0.10046038E+03    0.92787254E+02    0.10286851E+03
H     0.10076211E+03    0.92039348E+02    0.10224265E+03
H     0.10093954E+03    0.92635218E+02    0.10372257E+03
O     0.98539687E+02    0.98886695E+02    0.10179525E+03
H     0.98499190E+02    0.98615572E+02    0.10083704E+03
H     0.97738450E+02    0.98641860E+02    0.10233220E+03
O     0.96105634E+02    0.97691543E+02    0.10258744E+03
H     0.95294586E+02    0.98263545E+02    0.10234612E+03
H     0.95887699E+02    0.96837725E+02    0.10301316E+03
O     0.97593524E+02    0.94229996E+02    0.98407866E+02
H     0.96874328E+02    0.94807630E+02    0.98802666E+02
H     0.98495102E+02    0.94658605E+02    0.98517300E+02
O     0.96513310E+02    0.94687453E+02    0.10162485E+03
H     0.96190958E+02    0.93775295E+02    0.10130383E+03
H     0.96285688E+02    0.94808794E+02    0.10261237E+03
O     0.96846827E+02    0.91744525E+02    0.99382655E+02
H     0.97034484E+02    0.92614988E+02    0.98883492E+02
H     0.96067844E+02    0.91801579E+02    0.10008261E+03
O     0.98579491E+02    0.10032326E+03    0.97832358E+02
H     0.99499344E+02    0.10009524E+03    0.97462835E+02
H     0.98130142E+02    0.99574387E+02    0.98418700E+02
O     0.10120866E+03    0.90697907E+02    0.10116883E+03
H     0.10179057E+03    0.90573410E+02    0.10032841E+03
H     0.10027812E+03    0.90312507E+02    0.10112306E+03
O     0.10033565E+03    0.95197474E+02    0.10489882E+03
H     0.10011010E+03    0.95146684E+02    0.10387701E+03
H     0.10114295E+03    0.95790864E+02    0.10492365E+03
O     0.95655985E+02    0.10119895E+03    0.10109064E+03
H     0.96656980E+02    0.10142465E+03    0.10095728E+03
H     0.95159283E+02    0.10105500E+03    0.10020091E+03
O     0.93215660E+02    0.10297576E+03    0.10011983E+03
H     0.93522074E+02    0.10297862E+03    0.10112257E+03
H     0.92305651E+02    0.10343180E+03    0.99936300E+02
O     0.94314595E+02    0.10092933E+03    0.98776361E+02
H     0.93733297E+02    0.10169284E+03    0.99079892E+02
H     0.94817327E+02    0.10117696E+03    0.97916955E+02
O     0.95852436E+02    0.96240613E+02    0.99261710E+02
H     0.95068943E+02    0.96909640E+02    0.99189216E+02
H     0.95834111E+02    0.95856072E+02    0.10017511E+03
O     0.95240167E+02    0.92463704E+02    0.10454971E+03
H     0.95147273E+02    0.92059887E+02    0.10548577E+03
H     0.95945514E+02    0.91970202E+02    0.10400857E+03
O     0.93895436E+02    0.98130569E+02    0.99512853E+02
H     0.94164701E+02    0.98542928E+02    0.10037289E+03
H     0.93754678E+02    0.98911395E+02    0.98875507E+02
O     0.95344243E+02    0.91975552E+02    0.10161089E+03
H     0.95913264E+02    0.91525579E+02    0.10231352E+03
H     0.94379154E+02    0.91915840E+02    0.10186011E+03
O     0.99181528E+02    0.94787883E+02    0.10145497E+03
H     0.98164289E+02    0.94687922E+02    0.10161225E+03
H     0.99697095E+02    0.94036690E+02    0.10191160E+03
O     0.96212611E+02    0.94929245E+02    0.10429808E+03
H     0.95682947E+02    0.94044414E+02    0.10442965E+03
H     0.97005556E+02    0.94831698E+02    0.10491574E+03
O     0.94003585E+02    0.99303925E+02    0.10204750E+03
H     0.94612177E+02    0.10003953E+03    0.10175408E+03
H     0.93024632E+02    0.99379244E+02    0.10179805E+03
O     0.98523471E+02    0.92196276E+02    0.10519233E+03
H     0.99529542E+02    0.92078516E+02    0.10532180E+03
H     0.98302552E+02    0.93182242E+02    0.10543756E+03
O     0.94169825E+02    0.10304979E+03    0.10273323E+03
H     0.94649810E+02    0.10395080E+03    0.10269662E+03
H     0.94746060E+02    0.10230227E+03    0.10237563E+03
O     0.10137127E+03    0.92808851E+02    0.10545187E+03
H     0.10124383E+03    0.93837246E+02    0.10558692E+03
H     0.10234055E+03    0.92630569E+02    0.10526002E+03
O     0.10042642E+03    0.97017674E+02    0.10244024E+03
H     0.99789970E+02    0.97808608E+02    0.10231688E+03
H     0.10008131E+03    0.96218841E+02    0.10186531E+03
O     0.97985728E+02    0.97926725E+02    0.99169020E+02
H     0.98794808E+02    0.97339147E+02    0.98989306E+02
H     0.97107169E+02    0.97420823E+02    0.98987973E+02
O     0.99707504E+02    0.95683941E+02    0.99132229E+02
H     0.99267245E+02    0.95378367E+02    0.10001159E+03
H     0.10065128E+03    0.95457297E+02    0.99194150E+02
O     0.96240903E+02    0.10135903E+03    0.96694614E+02
H     0.96235109E+02    0.10153964E+03    0.95709483E+02
H     0.97136261E+02    0.10112232E+03    0.97076101E+02
O     0.98549832E+02    0.90017294E+02    0.10058571E+03
H     0.98077689E+02    0.89156623E+02    0.10038996E+03
H     0.98242979E+02    0.90798415E+02    0.99991651E+02
O     0.10236863E+03    0.96963884E+02    0.10439863E+03
H     0.10180979E+03    0.97233278E+02    0.10359253E+03
H     0.10329003E+03    0.97400015E+02    0.10428498E+03
