          97
Time step:                2000 Sim. Time [au]       20000.00
C     0.10168898E+03    0.94598121E+02    0.10438497E+03
H     0.10123170E+03    0.95444208E+02    0.10390898E+03
H     0.10102008E+03    0.93965524E+02    0.10496185E+03
H     0.10240788E+03    0.95023958E+02    0.10505894E+03
H     0.10229854E+03    0.94005207E+02    0.10361389E+03
C     0.94110349E+02    0.97271375E+02    0.10518890E+03
O     0.93953749E+02    0.97851919E+02    0.10416076E+03
O     0.92878403E+02    0.96667901E+02    0.10045478E+03
H     0.92582137E+02    0.95694931E+02    0.10062193E+03
H     0.93809818E+02    0.96668931E+02    0.10001321E+03
O     0.97569025E+02    0.96966326E+02    0.98450332E+02
H     0.98151963E+02    0.96641910E+02    0.99205404E+02
H     0.97760112E+02    0.96337826E+02    0.97634273E+02
O     0.98339094E+02    0.99122875E+02    0.10044575E+03
H     0.97773961E+02    0.99832357E+02    0.10089567E+03
H     0.98092344E+02    0.99063089E+02    0.99458990E+02
O     0.97886797E+02    0.90314604E+02    0.10022597E+03
H     0.98843300E+02    0.90481045E+02    0.99891172E+02
H     0.97287860E+02    0.90770777E+02    0.99535828E+02
O     0.95673709E+02    0.94238853E+02    0.10015858E+03
H     0.94836315E+02    0.93989648E+02    0.10071560E+03
H     0.95776023E+02    0.95264173E+02    0.10020356E+03
O     0.98568411E+02    0.95691309E+02    0.10560006E+03
H     0.97669998E+02    0.95383945E+02    0.10522406E+03
H     0.99138067E+02    0.94924501E+02    0.10584380E+03
O     0.96525381E+02    0.96784218E+02    0.10244685E+03
H     0.96924047E+02    0.97523905E+02    0.10296690E+03
H     0.95957275E+02    0.97116450E+02    0.10166185E+03
O     0.96381911E+02    0.10025061E+03    0.10436704E+03
H     0.97219620E+02    0.99619297E+02    0.10446890E+03
H     0.95475008E+02    0.99856710E+02    0.10447893E+03
O     0.10154016E+03    0.89892779E+02    0.10262417E+03
H     0.10252179E+03    0.89894017E+02    0.10260795E+03
H     0.10118317E+03    0.90692323E+02    0.10214239E+03
O     0.95881592E+02    0.10278372E+03    0.10009088E+03
H     0.95845015E+02    0.10369340E+03    0.10056325E+03
H     0.96151514E+02    0.10210819E+03    0.10074661E+03
O     0.98625804E+02    0.93021529E+02    0.97610300E+02
H     0.99114892E+02    0.93531780E+02    0.98359631E+02
H     0.97802015E+02    0.92577968E+02    0.98015908E+02
O     0.96279950E+02    0.89820862E+02    0.10228565E+03
H     0.96872710E+02    0.89863767E+02    0.10146171E+03
H     0.96563328E+02    0.89060221E+02    0.10287177E+03
O     0.93718649E+02    0.93791568E+02    0.10477939E+03
H     0.94549804E+02    0.94301303E+02    0.10493109E+03
H     0.93749297E+02    0.92833633E+02    0.10511021E+03
O     0.97165883E+02    0.87629169E+02    0.10349241E+03
H     0.97344796E+02    0.86864739E+02    0.10404738E+03
H     0.97828900E+02    0.88384293E+02    0.10369516E+03
O     0.96373649E+02    0.94736913E+02    0.10430526E+03
H     0.96576177E+02    0.93774495E+02    0.10400144E+03
H     0.96295991E+02    0.95414263E+02    0.10355964E+03
O     0.94151302E+02    0.99523691E+02    0.10023900E+03
H     0.93287529E+02    0.98932708E+02    0.10045380E+03
H     0.94032162E+02    0.10025717E+03    0.99549725E+02
O     0.96709369E+02    0.92193332E+02    0.10385378E+03
H     0.96918258E+02    0.91577065E+02    0.10308229E+03
H     0.95891111E+02    0.91815701E+02    0.10436772E+03
O     0.98085548E+02    0.98199381E+02    0.10430690E+03
H     0.99031240E+02    0.98536839E+02    0.10400397E+03
H     0.98154096E+02    0.97345386E+02    0.10476804E+03
O     0.98904500E+02    0.96380721E+02    0.10071871E+03
H     0.98279051E+02    0.96259820E+02    0.10156894E+03
H     0.99107539E+02    0.97325999E+02    0.10048244E+03
O     0.95380861E+02    0.97146024E+02    0.99869357E+02
H     0.94988158E+02    0.98109386E+02    0.99772859E+02
H     0.96154485E+02    0.96976933E+02    0.99219532E+02
O     0.93723662E+02    0.93465948E+02    0.10197478E+03
H     0.93421517E+02    0.93853407E+02    0.10289253E+03
H     0.93912569E+02    0.92446153E+02    0.10202876E+03
O     0.94312316E+02    0.10140679E+03    0.98337862E+02
H     0.94853140E+02    0.10203978E+03    0.98919898E+02
H     0.94699412E+02    0.10129225E+03    0.97392725E+02
O     0.94616025E+02    0.91081031E+02    0.10500112E+03
H     0.94421552E+02    0.90470234E+02    0.10578923E+03
H     0.94049887E+02    0.90860011E+02    0.10422559E+03
O     0.97508940E+02    0.95185766E+02    0.96358876E+02
H     0.97818294E+02    0.94246721E+02    0.96593648E+02
H     0.96984576E+02    0.95331654E+02    0.95430764E+02
O     0.93778686E+02    0.90614011E+02    0.10227775E+03
H     0.93055190E+02    0.89987117E+02    0.10190327E+03
H     0.94755212E+02    0.90321222E+02    0.10206592E+03
O     0.10012932E+03    0.91877901E+02    0.10135059E+03
H     0.10027467E+03    0.92641870E+02    0.10074471E+03
H     0.99095753E+02    0.91883050E+02    0.10154481E+03
O     0.10002034E+03    0.94043989E+02    0.99660815E+02
H     0.99531733E+02    0.94818501E+02    0.10008761E+03
H     0.10080834E+03    0.94443813E+02    0.99079524E+02
O     0.98983803E+02    0.89575358E+02    0.10415607E+03
H     0.98716249E+02    0.90439385E+02    0.10467785E+03
H     0.99818371E+02    0.89572249E+02    0.10356601E+03
O     0.96253239E+02    0.10045249E+03    0.10162681E+03
H     0.95445071E+02    0.99987959E+02    0.10116418E+03
H     0.96203635E+02    0.10046467E+03    0.10263823E+03
O     0.96311771E+02    0.92101650E+02    0.98791581E+02
H     0.95506416E+02    0.91512038E+02    0.98824458E+02
H     0.96093580E+02    0.93059807E+02    0.99166999E+02
