          97
Time step:                3500 Sim. Time [au]       35000.00
C     0.10183422E+03    0.93573559E+02    0.10387822E+03
H     0.10142414E+03    0.93675519E+02    0.10285298E+03
H     0.10238131E+03    0.94451850E+02    0.10413288E+03
H     0.10252747E+03    0.92670317E+02    0.10384065E+03
H     0.10105686E+03    0.93305476E+02    0.10469331E+03
C     0.94570353E+02    0.97154535E+02    0.10440130E+03
O     0.94073871E+02    0.98170920E+02    0.10422611E+03
O     0.91756306E+02    0.98898935E+02    0.10185269E+03
H     0.91700284E+02    0.98466264E+02    0.10094058E+03
H     0.90791741E+02    0.98883935E+02    0.10219860E+03
O     0.97896681E+02    0.97238398E+02    0.98472056E+02
H     0.98593436E+02    0.96686042E+02    0.98999791E+02
H     0.98083887E+02    0.97196238E+02    0.97476733E+02
O     0.98976411E+02    0.98908113E+02    0.10051333E+03
H     0.98177621E+02    0.99363085E+02    0.10098325E+03
H     0.98821594E+02    0.98828714E+02    0.99514851E+02
O     0.96882716E+02    0.91302331E+02    0.10008698E+03
H     0.97535331E+02    0.91901803E+02    0.10056169E+03
H     0.96591415E+02    0.91650164E+02    0.99167667E+02
O     0.94837413E+02    0.94287386E+02    0.99352161E+02
H     0.94361751E+02    0.93822358E+02    0.10015959E+03
H     0.94898712E+02    0.95290506E+02    0.99578995E+02
O     0.98008763E+02    0.95308089E+02    0.10566599E+03
H     0.97918201E+02    0.94472958E+02    0.10511348E+03
H     0.98238690E+02    0.95101883E+02    0.10664177E+03
O     0.97070565E+02    0.95606232E+02    0.10229619E+03
H     0.97386993E+02    0.96358774E+02    0.10290434E+03
H     0.96428842E+02    0.95871088E+02    0.10159165E+03
O     0.97007829E+02    0.99451421E+02    0.10457956E+03
H     0.97621778E+02    0.98657576E+02    0.10448381E+03
H     0.96390028E+02    0.99471156E+02    0.10539942E+03
O     0.99933869E+02    0.90653834E+02    0.10232307E+03
H     0.99934396E+02    0.90100966E+02    0.10146191E+03
H     0.99404991E+02    0.91514273E+02    0.10222430E+03
O     0.97043176E+02    0.10233579E+03    0.10035395E+03
H     0.97855805E+02    0.10221133E+03    0.99776578E+02
H     0.96914469E+02    0.10159894E+03    0.10105996E+03
O     0.99064062E+02    0.94364633E+02    0.97985573E+02
H     0.99657861E+02    0.94209961E+02    0.98805248E+02
H     0.98184799E+02    0.93818338E+02    0.98112541E+02
O     0.95579706E+02    0.89390173E+02    0.10150617E+03
H     0.96182415E+02    0.89863898E+02    0.10084241E+03
H     0.96054377E+02    0.88609892E+02    0.10198695E+03
O     0.93593098E+02    0.93741132E+02    0.10469671E+03
H     0.94470911E+02    0.94016483E+02    0.10514514E+03
H     0.93424962E+02    0.92761668E+02    0.10470968E+03
O     0.97171747E+02    0.87871796E+02    0.10307984E+03
H     0.97493598E+02    0.86877652E+02    0.10315617E+03
H     0.97764519E+02    0.88414325E+02    0.10367510E+03
O     0.97562909E+02    0.93367569E+02    0.10387554E+03
H     0.96973719E+02    0.92557920E+02    0.10409549E+03
H     0.97145958E+02    0.93995460E+02    0.10320380E+03
O     0.94403947E+02    0.99100550E+02    0.10092655E+03
H     0.93601924E+02    0.98803826E+02    0.10144856E+03
H     0.94133586E+02    0.99924479E+02    0.10031156E+03
O     0.96078823E+02    0.91246853E+02    0.10403941E+03
H     0.96250643E+02    0.90746052E+02    0.10315976E+03
H     0.95082270E+02    0.91266491E+02    0.10421069E+03
O     0.98530209E+02    0.97344149E+02    0.10392784E+03
H     0.99444622E+02    0.97429281E+02    0.10363623E+03
H     0.98402317E+02    0.96606340E+02    0.10465484E+03
O     0.99594737E+02    0.96331194E+02    0.10096213E+03
H     0.98723265E+02    0.96031811E+02    0.10133276E+03
H     0.99583278E+02    0.97362956E+02    0.10088029E+03
O     0.95936128E+02    0.96928630E+02    0.10032959E+03
H     0.95333470E+02    0.97711972E+02    0.10060261E+03
H     0.96565928E+02    0.97140020E+02    0.99493723E+02
O     0.93807358E+02    0.93465983E+02    0.10173574E+03
H     0.93681733E+02    0.93975901E+02    0.10262756E+03
H     0.93778957E+02    0.92435527E+02    0.10187497E+03
O     0.94127277E+02    0.10174839E+03    0.99906822E+02
H     0.94927310E+02    0.10207722E+03    0.10041259E+03
H     0.93877408E+02    0.10239346E+03    0.99184846E+02
O     0.93282344E+02    0.90999266E+02    0.10417717E+03
H     0.92513678E+02    0.90556983E+02    0.10462198E+03
H     0.93206587E+02    0.90814220E+02    0.10317032E+03
O     0.98784668E+02    0.96272506E+02    0.96091396E+02
H     0.99084245E+02    0.95615071E+02    0.96868215E+02
H     0.98613563E+02    0.95893734E+02    0.95197961E+02
O     0.93166557E+02    0.90626072E+02    0.10156867E+03
H     0.92693375E+02    0.90440982E+02    0.10069694E+03
H     0.94127904E+02    0.90296888E+02    0.10154743E+03
O     0.98630105E+02    0.92717653E+02    0.10158131E+03
H     0.99499909E+02    0.93169802E+02    0.10121458E+03
H     0.98302604E+02    0.93147118E+02    0.10241877E+03
O     0.10079842E+03    0.93954986E+02    0.10039252E+03
H     0.10043117E+03    0.94937362E+02    0.10049108E+03
H     0.10177134E+03    0.93856853E+02    0.10057996E+03
O     0.98766695E+02    0.89615338E+02    0.10456184E+03
H     0.98233250E+02    0.90392161E+02    0.10481554E+03
H     0.99360459E+02    0.89901692E+02    0.10379762E+03
O     0.96911525E+02    0.10008056E+03    0.10183398E+03
H     0.96020543E+02    0.99688362E+02    0.10152902E+03
H     0.97038849E+02    0.10000175E+03    0.10285232E+03
O     0.96543221E+02    0.92921059E+02    0.97806942E+02
H     0.96319694E+02    0.93096060E+02    0.96819089E+02
H     0.95832448E+02    0.93337291E+02    0.98387795E+02
