          97
Time step:               40000 Sim. Time [au]      400000.00
C     0.85521867E+02    0.82805254E+02    0.99220053E+02
H     0.86497533E+02    0.83174152E+02    0.99550784E+02
H     0.84605909E+02    0.83254031E+02    0.99748757E+02
H     0.85528712E+02    0.81758239E+02    0.99514462E+02
H     0.85525273E+02    0.83000753E+02    0.98171155E+02
C     0.85884286E+02    0.84762033E+02    0.10021212E+03
O     0.86051110E+02    0.85475358E+02    0.10107899E+03
O     0.96999801E+02    0.90627051E+02    0.10244383E+03
H     0.97123788E+02    0.90051920E+02    0.10160138E+03
H     0.97736101E+02    0.90571412E+02    0.10307179E+03
O     0.98412865E+02    0.92647916E+02    0.10600312E+03
H     0.98770735E+02    0.92324156E+02    0.10692883E+03
H     0.99047149E+02    0.93239636E+02    0.10550863E+03
O     0.99942640E+02    0.92413832E+02    0.10152830E+03
H     0.99910831E+02    0.91639633E+02    0.10084314E+03
H     0.99647385E+02    0.92161395E+02    0.10244933E+03
O     0.97514487E+02    0.99037465E+02    0.10134441E+03
H     0.98086118E+02    0.98906943E+02    0.10053058E+03
H     0.96554605E+02    0.98808988E+02    0.10115482E+03
O     0.95495766E+02    0.96919644E+02    0.10315478E+03
H     0.95134169E+02    0.97847025E+02    0.10346729E+03
H     0.95376028E+02    0.96278639E+02    0.10387694E+03
O     0.97774989E+02    0.94743809E+02    0.98357074E+02
H     0.97124806E+02    0.95524348E+02    0.98397148E+02
H     0.98708753E+02    0.95013480E+02    0.98666738E+02
O     0.96438903E+02    0.95467077E+02    0.10127130E+03
H     0.95897829E+02    0.94583200E+02    0.10126396E+03
H     0.96058690E+02    0.96113121E+02    0.10199182E+03
O     0.96758360E+02    0.92375164E+02    0.99215966E+02
H     0.97275999E+02    0.93079725E+02    0.98698179E+02
H     0.96157802E+02    0.92749155E+02    0.99976822E+02
O     0.99679350E+02    0.10077902E+03    0.98827503E+02
H     0.10061603E+03    0.10118992E+03    0.98770339E+02
H     0.99693039E+02    0.99707623E+02    0.98806577E+02
O     0.99841172E+02    0.90104726E+02    0.10014182E+03
H     0.10048289E+03    0.89378613E+02    0.99871229E+02
H     0.98881613E+02    0.89936539E+02    0.99872012E+02
O     0.99961790E+02    0.94636844E+02    0.10462089E+03
H     0.99651155E+02    0.94792986E+02    0.10364475E+03
H     0.99963484E+02    0.95520084E+02    0.10509081E+03
O     0.96451804E+02    0.10145874E+03    0.10180437E+03
H     0.97078726E+02    0.10068582E+03    0.10157155E+03
H     0.95850494E+02    0.10165444E+03    0.10102098E+03
O     0.93844833E+02    0.10432557E+03    0.10002110E+03
H     0.94864867E+02    0.10435832E+03    0.10020301E+03
H     0.93389891E+02    0.10506736E+03    0.10055296E+03
O     0.94660701E+02    0.10157912E+03    0.99614979E+02
H     0.94144134E+02    0.10242838E+03    0.99839375E+02
H     0.95587395E+02    0.10172273E+03    0.99187119E+02
O     0.96270834E+02    0.96965060E+02    0.98970123E+02
H     0.95688412E+02    0.97785975E+02    0.99281317E+02
H     0.96189816E+02    0.96215151E+02    0.99684647E+02
O     0.95741002E+02    0.92405566E+02    0.10449690E+03
H     0.96628702E+02    0.92550958E+02    0.10502089E+03
H     0.95870109E+02    0.91584675E+02    0.10386205E+03
O     0.94951119E+02    0.98920426E+02    0.10020345E+03
H     0.94422216E+02    0.98734670E+02    0.10101787E+03
H     0.94702330E+02    0.99866719E+02    0.99867476E+02
O     0.95330704E+02    0.93012521E+02    0.10153240E+03
H     0.96160077E+02    0.92451578E+02    0.10183964E+03
H     0.94514569E+02    0.92804356E+02    0.10206918E+03
O     0.98999777E+02    0.94835610E+02    0.10196818E+03
H     0.98044437E+02    0.95014136E+02    0.10163542E+03
H     0.99266876E+02    0.93873293E+02    0.10168843E+03
O     0.95748106E+02    0.95216470E+02    0.10534323E+03
H     0.95300941E+02    0.94329022E+02    0.10518625E+03
H     0.96538925E+02    0.95027437E+02    0.10591743E+03
O     0.94977310E+02    0.99474329E+02    0.10349749E+03
H     0.95355634E+02    0.10022952E+03    0.10286149E+03
H     0.95082044E+02    0.99579817E+02    0.10446981E+03
O     0.99317850E+02    0.90981647E+02    0.10403904E+03
H     0.10032052E+03    0.91011780E+02    0.10422951E+03
H     0.98805748E+02    0.91473284E+02    0.10479311E+03
O     0.96439282E+02    0.10418998E+03    0.10056624E+03
H     0.97320243E+02    0.10401910E+03    0.10006005E+03
H     0.96442179E+02    0.10363545E+03    0.10142947E+03
O     0.10159863E+03    0.92098171E+02    0.10460659E+03
H     0.10149551E+03    0.93093633E+02    0.10438316E+03
H     0.10241976E+03    0.91939378E+02    0.10516301E+03
O     0.98970074E+02    0.97955069E+02    0.10339086E+03
H     0.98337466E+02    0.98566850E+02    0.10284838E+03
H     0.99272315E+02    0.97320111E+02    0.10269119E+03
O     0.98945404E+02    0.98071442E+02    0.98975542E+02
H     0.99584222E+02    0.97243846E+02    0.98939539E+02
H     0.98014099E+02    0.97863207E+02    0.98598702E+02
O     0.10036380E+03    0.95798345E+02    0.99795608E+02
H     0.99922739E+02    0.95625546E+02    0.10068507E+03
H     0.10126005E+03    0.95318356E+02    0.99698970E+02
O     0.97119486E+02    0.10162878E+03    0.98278107E+02
H     0.96821381E+02    0.10108013E+03    0.97486843E+02
H     0.98078709E+02    0.10140919E+03    0.98532349E+02
O     0.97043886E+02    0.89684588E+02    0.99816281E+02
H     0.96350674E+02    0.89213192E+02    0.99301227E+02
H     0.97148415E+02    0.90708358E+02    0.99540815E+02
O     0.99976449E+02    0.97067245E+02    0.10590292E+03
H     0.99656331E+02    0.97644567E+02    0.10510783E+03
H     0.10062421E+03    0.97618361E+02    0.10640295E+03
