          97
Time step:               35500 Sim. Time [au]      355000.00
C     0.87083559E+02    0.84676184E+02    0.10021930E+03
H     0.87985895E+02    0.84677881E+02    0.10082960E+03
H     0.87169897E+02    0.83734476E+02    0.99670092E+02
H     0.87035804E+02    0.85382863E+02    0.99364291E+02
H     0.86129050E+02    0.84713108E+02    0.10084326E+03
C     0.87752934E+02    0.87256970E+02    0.10150959E+03
O     0.87968777E+02    0.87813692E+02    0.10251737E+03
O     0.97351012E+02    0.91664114E+02    0.10359402E+03
H     0.97946955E+02    0.91131295E+02    0.10291325E+03
H     0.97862138E+02    0.92163983E+02    0.10426012E+03
O     0.98061731E+02    0.95824740E+02    0.10565546E+03
H     0.97600196E+02    0.96600935E+02    0.10606517E+03
H     0.99067297E+02    0.96008281E+02    0.10548785E+03
O     0.10033589E+03    0.92794643E+02    0.10327491E+03
H     0.10077242E+03    0.91919673E+02    0.10297812E+03
H     0.10099298E+03    0.93238111E+02    0.10392577E+03
O     0.97717508E+02    0.98660099E+02    0.10172515E+03
H     0.97847382E+02    0.98502216E+02    0.10075211E+03
H     0.96932141E+02    0.98031262E+02    0.10202180E+03
O     0.95429334E+02    0.97206552E+02    0.10231553E+03
H     0.94621917E+02    0.97641221E+02    0.10277522E+03
H     0.95727094E+02    0.96404602E+02    0.10288111E+03
O     0.98052256E+02    0.93582828E+02    0.97516314E+02
H     0.97474570E+02    0.94292462E+02    0.97998908E+02
H     0.98093238E+02    0.93844140E+02    0.96561329E+02
O     0.96884800E+02    0.94066005E+02    0.10129193E+03
H     0.96642334E+02    0.93104208E+02    0.10117367E+03
H     0.96648660E+02    0.94380023E+02    0.10226717E+03
O     0.97336312E+02    0.91472029E+02    0.99174337E+02
H     0.97574229E+02    0.92237687E+02    0.98549170E+02
H     0.96372507E+02    0.91550579E+02    0.99544914E+02
O     0.98040883E+02    0.99865463E+02    0.97672624E+02
H     0.98428721E+02    0.10070844E+03    0.98145417E+02
H     0.98210414E+02    0.99004454E+02    0.98224111E+02
O     0.10119450E+03    0.90392337E+02    0.10200571E+03
H     0.10196019E+03    0.89966210E+02    0.10144507E+03
H     0.10027130E+03    0.90308222E+02    0.10158680E+03
O     0.10063743E+03    0.96362007E+02    0.10473212E+03
H     0.10023172E+03    0.96400352E+02    0.10380840E+03
H     0.10138888E+03    0.97031558E+02    0.10484178E+03
O     0.95401825E+02    0.10055526E+03    0.10163189E+03
H     0.96254770E+02    0.10004841E+03    0.10181830E+03
H     0.95151611E+02    0.10047904E+03    0.10066135E+03
O     0.91924279E+02    0.10159983E+03    0.99676339E+02
H     0.92463963E+02    0.10195628E+03    0.10046851E+03
H     0.90941268E+02    0.10145068E+03    0.99860542E+02
O     0.94228581E+02    0.10005767E+03    0.99037631E+02
H     0.93326395E+02    0.10050642E+03    0.99219871E+02
H     0.94567152E+02    0.10027084E+03    0.98100585E+02
O     0.96601517E+02    0.95431032E+02    0.98841201E+02
H     0.95847514E+02    0.96156062E+02    0.98816814E+02
H     0.96629083E+02    0.94888698E+02    0.99720726E+02
O     0.95272394E+02    0.92933544E+02    0.10503601E+03
H     0.95431034E+02    0.93135854E+02    0.10602845E+03
H     0.95900657E+02    0.92179299E+02    0.10468038E+03
O     0.94777218E+02    0.97344645E+02    0.99584419E+02
H     0.94856314E+02    0.97060782E+02    0.10056933E+03
H     0.94273352E+02    0.98237722E+02    0.99545955E+02
O     0.95297312E+02    0.91355658E+02    0.10148424E+03
H     0.95944263E+02    0.90967793E+02    0.10216407E+03
H     0.94598827E+02    0.91891024E+02    0.10199939E+03
O     0.99612588E+02    0.94712133E+02    0.10143406E+03
H     0.98602928E+02    0.94549850E+02    0.10160423E+03
H     0.10020096E+03    0.93993457E+02    0.10179325E+03
O     0.96200026E+02    0.95082506E+02    0.10374064E+03
H     0.95728831E+02    0.94211086E+02    0.10393977E+03
H     0.96881602E+02    0.95286962E+02    0.10443502E+03
O     0.93501306E+02    0.99506450E+02    0.10318824E+03
H     0.94284022E+02    0.99951323E+02    0.10270604E+03
H     0.92629120E+02    0.99868058E+02    0.10277800E+03
O     0.98339747E+02    0.93143830E+02    0.10568582E+03
H     0.99350017E+02    0.93147438E+02    0.10580142E+03
H     0.98089134E+02    0.94126774E+02    0.10558050E+03
O     0.93187107E+02    0.10266415E+03    0.10207804E+03
H     0.92755213E+02    0.10309844E+03    0.10281971E+03
H     0.94157439E+02    0.10242996E+03    0.10221184E+03
O     0.10188360E+03    0.94047320E+02    0.10530542E+03
H     0.10167620E+03    0.94993994E+02    0.10509118E+03
H     0.10247207E+03    0.93876675E+02    0.10612619E+03
O     0.99987638E+02    0.97335045E+02    0.10220533E+03
H     0.99235137E+02    0.97969445E+02    0.10196676E+03
H     0.10002366E+03    0.96528410E+02    0.10159563E+03
O     0.98529127E+02    0.97439200E+02    0.99191456E+02
H     0.99293577E+02    0.96878130E+02    0.98819787E+02
H     0.97717267E+02    0.96819441E+02    0.99074237E+02
O     0.99895111E+02    0.95069678E+02    0.98799676E+02
H     0.99738608E+02    0.95095279E+02    0.99798997E+02
H     0.99358194E+02    0.94281573E+02    0.98369536E+02
O     0.95637814E+02    0.10016707E+03    0.96745200E+02
H     0.95387789E+02    0.99614478E+02    0.95930080E+02
H     0.96624302E+02    0.10001090E+03    0.96995831E+02
O     0.98336365E+02    0.90027103E+02    0.10132071E+03
H     0.98070994E+02    0.89019546E+02    0.10133076E+03
H     0.97984597E+02    0.90579809E+02    0.10058169E+03
O     0.10216953E+03    0.98472881E+02    0.10346398E+03
H     0.10147275E+03    0.97993110E+02    0.10293889E+03
H     0.10265208E+03    0.99278267E+02    0.10303480E+03
