          97
Time step:               44500 Sim. Time [au]      445000.00
C     0.83892516E+02    0.83287704E+02    0.98972069E+02
H     0.85042370E+02    0.83388657E+02    0.98727670E+02
H     0.83359512E+02    0.82945844E+02    0.97947072E+02
H     0.83592931E+02    0.84214878E+02    0.99349719E+02
H     0.83965728E+02    0.81989963E+02    0.10059522E+03
C     0.84041126E+02    0.81946918E+02    0.99498839E+02
O     0.84401445E+02    0.81320506E+02    0.98520030E+02
O     0.97301296E+02    0.91270534E+02    0.10160569E+03
H     0.97070636E+02    0.91260180E+02    0.10061633E+03
H     0.98325402E+02    0.91383126E+02    0.10178410E+03
O     0.96183970E+02    0.93020482E+02    0.10521552E+03
H     0.96059872E+02    0.92242969E+02    0.10583396E+03
H     0.97164025E+02    0.93211681E+02    0.10496765E+03
O     0.99733665E+02    0.93615077E+02    0.10053548E+03
H     0.99333998E+02    0.93141754E+02    0.99755003E+02
H     0.99862611E+02    0.92893786E+02    0.10129708E+03
O     0.99620508E+02    0.99168148E+02    0.10181688E+03
H     0.10003690E+03    0.98396170E+02    0.10127584E+03
H     0.99039950E+02    0.99714590E+02    0.10121401E+03
O     0.95737318E+02    0.97850848E+02    0.10305365E+03
H     0.95877400E+02    0.98740202E+02    0.10355606E+03
H     0.95868813E+02    0.97111795E+02    0.10369834E+03
O     0.97605899E+02    0.95010676E+02    0.97678886E+02
H     0.97551914E+02    0.95895654E+02    0.98258609E+02
H     0.97458666E+02    0.95237003E+02    0.96702610E+02
O     0.95365243E+02    0.95823385E+02    0.10087906E+03
H     0.94645204E+02    0.95109106E+02    0.10093434E+03
H     0.95483078E+02    0.96359175E+02    0.10174648E+03
O     0.94677625E+02    0.93050355E+02    0.99451932E+02
H     0.95321764E+02    0.93809528E+02    0.99278089E+02
H     0.94176022E+02    0.93117477E+02    0.10033285E+03
O     0.99530263E+02    0.99747046E+02    0.97865575E+02
H     0.10041852E+03    0.10017927E+03    0.98206316E+02
H     0.99397304E+02    0.98823221E+02    0.98274666E+02
O     0.98455051E+02    0.92627612E+02    0.98446714E+02
H     0.98173969E+02    0.93568090E+02    0.98102283E+02
H     0.97676345E+02    0.91957885E+02    0.98399218E+02
O     0.98811270E+02    0.94096495E+02    0.10479426E+03
H     0.98643367E+02    0.94426254E+02    0.10384079E+03
H     0.98827857E+02    0.94878517E+02    0.10541332E+03
O     0.98427604E+02    0.10106041E+03    0.10322395E+03
H     0.99197202E+02    0.10049579E+03    0.10288593E+03
H     0.97963486E+02    0.10151331E+03    0.10241649E+03
O     0.96539607E+02    0.10462249E+03    0.10271251E+03
H     0.97134113E+02    0.10406422E+03    0.10330861E+03
H     0.96177817E+02    0.10540934E+03    0.10321087E+03
O     0.97216363E+02    0.10211683E+03    0.10105744E+03
H     0.96823629E+02    0.10298696E+03    0.10142357E+03
H     0.97503563E+02    0.10216068E+03    0.10005456E+03
O     0.97306321E+02    0.97229468E+02    0.99286771E+02
H     0.97154705E+02    0.98256271E+02    0.99389370E+02
H     0.96544030E+02    0.96730053E+02    0.99776626E+02
O     0.95040383E+02    0.91637426E+02    0.10293798E+03
H     0.95186555E+02    0.92239001E+02    0.10374525E+03
H     0.95911782E+02    0.91394492E+02    0.10247712E+03
O     0.96787794E+02    0.99448887E+02    0.10084501E+03
H     0.96489248E+02    0.98942995E+02    0.10170814E+03
H     0.96662741E+02    0.10046072E+03    0.10096707E+03
O     0.93555138E+02    0.93766167E+02    0.10177533E+03
H     0.93961733E+02    0.93042442E+02    0.10239774E+03
H     0.92642300E+02    0.93858226E+02    0.10216109E+03
O     0.97980758E+02    0.94689122E+02    0.10224265E+03
H     0.97070684E+02    0.94374067E+02    0.10191816E+03
H     0.98713483E+02    0.94471082E+02    0.10155077E+03
O     0.95988617E+02    0.95937554E+02    0.10479913E+03
H     0.96573694E+02    0.96047513E+02    0.10562038E+03
H     0.95724074E+02    0.94955567E+02    0.10478894E+03
O     0.96162603E+02    0.10008777E+03    0.10464288E+03
H     0.97112651E+02    0.10020565E+03    0.10428102E+03
H     0.96071321E+02    0.10041069E+03    0.10564715E+03
O     0.10032381E+03    0.91455033E+02    0.10196305E+03
H     0.10046454E+03    0.91322109E+02    0.10298037E+03
H     0.10116040E+03    0.91474951E+02    0.10138355E+03
O     0.97875051E+02    0.10325877E+03    0.10466244E+03
H     0.97643474E+02    0.10303376E+03    0.10558098E+03
H     0.98157376E+02    0.10248688E+03    0.10407545E+03
O     0.99949390E+02    0.91546301E+02    0.10479083E+03
H     0.99519256E+02    0.92456305E+02    0.10456956E+03
H     0.10019379E+03    0.91469016E+02    0.10581393E+03
O     0.98727897E+02    0.97289417E+02    0.10367123E+03
H     0.99049729E+02    0.97980901E+02    0.10299703E+03
H     0.98164281E+02    0.96535263E+02    0.10317656E+03
O     0.10006233E+03    0.97345522E+02    0.99755496E+02
H     0.10072195E+03    0.96563710E+02    0.99710284E+02
H     0.99079988E+02    0.97118617E+02    0.99638738E+02
O     0.10170622E+03    0.95095094E+02    0.99440493E+02
H     0.10174263E+03    0.94920029E+02    0.98418743E+02
H     0.10094993E+03    0.94557800E+02    0.99808120E+02
O     0.97788125E+02    0.10221180E+03    0.97894934E+02
H     0.98533381E+02    0.10277038E+03    0.97483237E+02
H     0.98042522E+02    0.10121409E+03    0.97804246E+02
O     0.96325271E+02    0.91155069E+02    0.98570869E+02
H     0.95852562E+02    0.90320373E+02    0.98183384E+02
H     0.95654576E+02    0.91786349E+02    0.98965157E+02
O     0.98665338E+02    0.96460691E+02    0.10631157E+03
H     0.98715008E+02    0.96850441E+02    0.10536045E+03
H     0.99365801E+02    0.96947636E+02    0.10689948E+03
