          97
Time step:               16500 Sim. Time [au]      165000.00
C     0.95822048E+02    0.95618834E+02    0.11093041E+03
H     0.96003253E+02    0.96322344E+02    0.11016063E+03
H     0.96523424E+02    0.96003678E+02    0.11175775E+03
H     0.95999440E+02    0.94610577E+02    0.11057462E+03
H     0.94713576E+02    0.95522328E+02    0.11114806E+03
C     0.94481413E+02    0.94661800E+02    0.10501726E+03
O     0.93697058E+02    0.94460154E+02    0.10416807E+03
O     0.98695408E+02    0.96543293E+02    0.10832717E+03
H     0.98560418E+02    0.96848631E+02    0.10930492E+03
H     0.99553164E+02    0.96008888E+02    0.10839690E+03
O     0.99175088E+02    0.98833764E+02    0.10217693E+03
H     0.98992544E+02    0.99825605E+02    0.10226128E+03
H     0.99463324E+02    0.98599903E+02    0.10119623E+03
O     0.10062871E+03    0.96786575E+02    0.10339494E+03
H     0.10146746E+03    0.97136186E+02    0.10383638E+03
H     0.10000257E+03    0.97458430E+02    0.10289291E+03
O     0.95813445E+02    0.94604119E+02    0.97311179E+02
H     0.96411873E+02    0.93824103E+02    0.97666678E+02
H     0.96158261E+02    0.95543808E+02    0.97480668E+02
O     0.95382639E+02    0.97114175E+02    0.10046602E+03
H     0.94457572E+02    0.96900588E+02    0.10075864E+03
H     0.96076078E+02    0.97044824E+02    0.10118356E+03
O     0.97463918E+02    0.91516799E+02    0.10336382E+03
H     0.96699752E+02    0.91847001E+02    0.10280926E+03
H     0.98159910E+02    0.91136457E+02    0.10274688E+03
O     0.97675486E+02    0.94287620E+02    0.10297578E+03
H     0.97891539E+02    0.93989445E+02    0.10393639E+03
H     0.97627430E+02    0.95323751E+02    0.10293475E+03
O     0.10034343E+03    0.94875261E+02    0.10564736E+03
H     0.99531141E+02    0.94251868E+02    0.10570116E+03
H     0.10019878E+03    0.95557256E+02    0.10492683E+03
O     0.95346800E+02    0.91512952E+02    0.96600263E+02
H     0.95191661E+02    0.92481729E+02    0.96267925E+02
H     0.96110283E+02    0.91450968E+02    0.97315724E+02
O     0.10238921E+03    0.98924647E+02    0.10538258E+03
H     0.10276240E+03    0.99576570E+02    0.10605596E+03
H     0.10254309E+03    0.98008798E+02    0.10582179E+03
O     0.99493140E+02    0.96645145E+02    0.98846246E+02
H     0.99553866E+02    0.95962533E+02    0.99585086E+02
H     0.98597270E+02    0.96579931E+02    0.98339250E+02
O     0.92788607E+02    0.94260947E+02    0.96553334E+02
H     0.93707854E+02    0.94625588E+02    0.96733044E+02
H     0.92757326E+02    0.93283380E+02    0.96930634E+02
O     0.90461482E+02    0.92667278E+02    0.10072152E+03
H     0.90338641E+02    0.93646030E+02    0.10034627E+03
H     0.91110322E+02    0.92615273E+02    0.10148396E+03
O     0.92432206E+02    0.92244362E+02    0.98718658E+02
H     0.91589946E+02    0.92352821E+02    0.99261363E+02
H     0.92552318E+02    0.91295488E+02    0.98391276E+02
O     0.96377004E+02    0.92759432E+02    0.10117656E+03
H     0.95499653E+02    0.93128993E+02    0.10084756E+03
H     0.96779704E+02    0.93457074E+02    0.10182899E+03
O     0.98271120E+02    0.97094124E+02    0.10549829E+03
H     0.97996704E+02    0.96757139E+02    0.10643405E+03
H     0.98788604E+02    0.97919563E+02    0.10568905E+03
O     0.94394876E+02    0.93611451E+02    0.99484162E+02
H     0.94782735E+02    0.94218765E+02    0.98791438E+02
H     0.93687140E+02    0.92946617E+02    0.99126122E+02
O     0.98194352E+02    0.93139260E+02    0.10549366E+03
H     0.97488222E+02    0.93187794E+02    0.10628428E+03
H     0.97889464E+02    0.92431189E+02    0.10485524E+03
O     0.99830405E+02    0.94885618E+02    0.10138888E+03
H     0.98919781E+02    0.94605041E+02    0.10166252E+03
H     0.10031247E+03    0.95441928E+02    0.10208327E+03
O     0.97223025E+02    0.96946169E+02    0.10295722E+03
H     0.97502354E+02    0.96902695E+02    0.10392911E+03
H     0.97776782E+02    0.97711254E+02    0.10253205E+03
O     0.92767464E+02    0.95900599E+02    0.10074594E+03
H     0.93449224E+02    0.95157175E+02    0.10045790E+03
H     0.91827345E+02    0.95636344E+02    0.10045973E+03
O     0.99663970E+02    0.99450343E+02    0.10509334E+03
H     0.10066156E+03    0.99348802E+02    0.10519994E+03
H     0.99535315E+02    0.99140730E+02    0.10412751E+03
O     0.90190444E+02    0.95132361E+02    0.99667522E+02
H     0.89427917E+02    0.95734587E+02    0.99860601E+02
H     0.90212820E+02    0.94804175E+02    0.98685767E+02
O     0.10072822E+03    0.98997615E+02    0.99803338E+02
H     0.10046928E+03    0.98163858E+02    0.99258967E+02
H     0.10169168E+03    0.99097210E+02    0.99869262E+02
O     0.90002601E+02    0.94740873E+02    0.97054097E+02
H     0.90919679E+02    0.94795581E+02    0.96623094E+02
H     0.89250399E+02    0.94761814E+02    0.96348893E+02
O     0.97366710E+02    0.92455910E+02    0.98507949E+02
H     0.98287497E+02    0.92927740E+02    0.98561167E+02
H     0.96988997E+02    0.92420885E+02    0.99469987E+02
O     0.99835678E+02    0.93625735E+02    0.98810620E+02
H     0.10030383E+03    0.93972920E+02    0.99662814E+02
H     0.10015461E+03    0.94089835E+02    0.98010294E+02
O     0.93229910E+02    0.89934799E+02    0.97350390E+02
H     0.92880190E+02    0.89088888E+02    0.96913208E+02
H     0.94131755E+02    0.90211398E+02    0.97029522E+02
O     0.10290287E+03    0.96177265E+02    0.10567794E+03
H     0.10369186E+03    0.95698249E+02    0.10532284E+03
H     0.10201446E+03    0.95623590E+02    0.10586287E+03
O     0.96943871E+02    0.97115436E+02    0.98177291E+02
H     0.97135690E+02    0.98034163E+02    0.97788740E+02
H     0.96378396E+02    0.97229463E+02    0.99009176E+02
